nanotube along the armchair direction

2238 atoms 

1 atom types 

#simulation box 
-0.710000 137.020669 xlo xhi
-9.619741 9.619741 ylo yhi
-9.619741 9.619741 zlo zhi

Masses

1 12.010000 

Atoms

1 1 0.000000 6.779741 0.000000
2 1 0.000000 6.631588 1.409587
3 1 1.228024 6.447917 2.095055
4 1 1.228024 5.871428 3.389870
5 1 0.000000 5.484926 3.985032
6 1 0.000000 4.536532 5.038330
7 1 1.228024 3.985032 5.484926
8 1 1.228024 2.757569 6.193602
9 1 0.000000 2.095055 6.447917
10 1 0.000000 0.708676 6.742601
11 1 1.228024 0.000000 6.779741
12 1 1.228024 -1.409587 6.631588
13 1 0.000000 -2.095055 6.447917
14 1 0.000000 -3.389870 5.871428
15 1 1.228024 -3.985032 5.484926
16 1 1.228024 -5.038330 4.536532
17 1 0.000000 -5.484926 3.985032
18 1 0.000000 -6.193602 2.757569
19 1 1.228024 -6.447917 2.095055
20 1 1.228024 -6.742601 0.708676
21 1 0.000000 -6.779741 0.000000
22 1 0.000000 -6.631588 -1.409587
23 1 1.228024 -6.447917 -2.095055
24 1 1.228024 -5.871428 -3.389870
25 1 0.000000 -5.484926 -3.985032
26 1 0.000000 -4.536532 -5.038330
27 1 1.228024 -3.985032 -5.484926
28 1 1.228024 -2.757569 -6.193602
29 1 0.000000 -2.095055 -6.447917
30 1 0.000000 -0.708676 -6.742601
31 1 1.228024 -0.000000 -6.779741
32 1 1.228024 1.409587 -6.631588
33 1 0.000000 2.095055 -6.447917
34 1 0.000000 3.389870 -5.871428
35 1 1.228024 3.985032 -5.484926
36 1 1.228024 5.038330 -4.536532
37 1 0.000000 5.484926 -3.985032
38 1 0.000000 6.193602 -2.757569
39 1 1.228024 6.447917 -2.095055
40 1 1.228024 6.742601 -0.708676
41 1 2.456048 6.779741 0.000000
42 1 2.456048 6.631588 1.409587
43 1 3.684072 6.447917 2.095055
44 1 3.684072 5.871428 3.389870
45 1 2.456048 5.484926 3.985032
46 1 2.456048 4.536532 5.038330
47 1 3.684072 3.985032 5.484926
48 1 3.684072 2.757569 6.193602
49 1 2.456048 2.095055 6.447917
50 1 2.456048 0.708676 6.742601
51 1 3.684072 0.000000 6.779741
52 1 3.684072 -1.409587 6.631588
53 1 2.456048 -2.095055 6.447917
54 1 2.456048 -3.389870 5.871428
55 1 3.684072 -3.985032 5.484926
56 1 3.684072 -5.038330 4.536532
57 1 2.456048 -5.484926 3.985032
58 1 2.456048 -6.193602 2.757569
59 1 3.684072 -6.447917 2.095055
60 1 3.684072 -6.742601 0.708676
61 1 2.456048 -6.779741 0.000000
62 1 2.456048 -6.631588 -1.409587
63 1 3.684072 -6.447917 -2.095055
64 1 3.684072 -5.871428 -3.389870
65 1 2.456048 -5.484926 -3.985032
66 1 2.456048 -4.536532 -5.038330
67 1 3.684072 -3.985032 -5.484926
68 1 3.684072 -2.757569 -6.193602
69 1 2.456048 -2.095055 -6.447917
70 1 2.456048 -0.708676 -6.742601
71 1 3.684072 -0.000000 -6.779741
72 1 3.684072 1.409587 -6.631588
73 1 2.456048 2.095055 -6.447917
74 1 2.456048 3.389870 -5.871428
75 1 3.684072 3.985032 -5.484926
76 1 3.684072 5.038330 -4.536532
77 1 2.456048 5.484926 -3.985032
78 1 2.456048 6.193602 -2.757569
79 1 3.684072 6.447917 -2.095055
80 1 3.684072 6.742601 -0.708676
81 1 4.912096 6.779741 0.000000
82 1 4.912096 6.631588 1.409587
83 1 6.140120 6.447917 2.095055
84 1 6.140120 5.871428 3.389870
85 1 4.912096 5.484926 3.985032
86 1 4.912096 4.536532 5.038330
87 1 6.140120 3.985032 5.484926
88 1 6.140120 2.757569 6.193602
89 1 4.912096 2.095055 6.447917
90 1 4.912096 0.708676 6.742601
91 1 6.140120 0.000000 6.779741
92 1 6.140120 -1.409587 6.631588
93 1 4.912096 -2.095055 6.447917
94 1 4.912096 -3.389870 5.871428
95 1 6.140120 -3.985032 5.484926
96 1 6.140120 -5.038330 4.536532
97 1 4.912096 -5.484926 3.985032
98 1 4.912096 -6.193602 2.757569
99 1 6.140120 -6.447917 2.095055
100 1 6.140120 -6.742601 0.708676
101 1 4.912096 -6.779741 0.000000
102 1 4.912096 -6.631588 -1.409587
103 1 6.140120 -6.447917 -2.095055
104 1 6.140120 -5.871428 -3.389870
105 1 4.912096 -5.484926 -3.985032
106 1 4.912096 -4.536532 -5.038330
107 1 6.140120 -3.985032 -5.484926
108 1 6.140120 -2.757569 -6.193602
109 1 4.912096 -2.095055 -6.447917
110 1 4.912096 -0.708676 -6.742601
111 1 6.140120 -0.000000 -6.779741
112 1 6.140120 1.409587 -6.631588
113 1 4.912096 2.095055 -6.447917
114 1 4.912096 3.389870 -5.871428
115 1 6.140120 3.985032 -5.484926
116 1 6.140120 5.038330 -4.536532
117 1 4.912096 5.484926 -3.985032
118 1 4.912096 6.193602 -2.757569
119 1 6.140120 6.447917 -2.095055
120 1 6.140120 6.742601 -0.708676
121 1 7.368144 6.779741 0.000000
122 1 7.368144 6.631588 1.409587
123 1 8.596169 6.447917 2.095055
124 1 8.596169 5.871428 3.389870
125 1 7.368144 5.484926 3.985032
126 1 7.368144 4.536532 5.038330
127 1 8.596169 3.985032 5.484926
128 1 8.596169 2.757569 6.193602
129 1 7.368144 2.095055 6.447917
130 1 7.368144 0.708676 6.742601
131 1 8.596169 0.000000 6.779741
132 1 8.596169 -1.409587 6.631588
133 1 7.368144 -2.095055 6.447917
134 1 7.368144 -3.389870 5.871428
135 1 8.596169 -3.985032 5.484926
136 1 8.596169 -5.038330 4.536532
137 1 7.368144 -5.484926 3.985032
138 1 7.368144 -6.193602 2.757569
139 1 8.596169 -6.447917 2.095055
140 1 8.596169 -6.742601 0.708676
141 1 7.368144 -6.779741 0.000000
142 1 7.368144 -6.631588 -1.409587
143 1 8.596169 -6.447917 -2.095055
144 1 8.596169 -5.871428 -3.389870
145 1 7.368144 -5.484926 -3.985032
146 1 7.368144 -4.536532 -5.038330
147 1 8.596169 -3.985032 -5.484926
148 1 8.596169 -2.757569 -6.193602
149 1 7.368144 -2.095055 -6.447917
150 1 7.368144 -0.708676 -6.742601
151 1 8.596169 -0.000000 -6.779741
152 1 8.596169 1.409587 -6.631588
153 1 7.368144 2.095055 -6.447917
154 1 7.368144 3.389870 -5.871428
155 1 8.596169 3.985032 -5.484926
156 1 8.596169 5.038330 -4.536532
157 1 7.368144 5.484926 -3.985032
158 1 7.368144 6.193602 -2.757569
159 1 8.596169 6.447917 -2.095055
160 1 8.596169 6.742601 -0.708676
161 1 9.824192 6.779741 0.000000
162 1 9.824192 6.631588 1.409587
163 1 11.052217 6.447917 2.095055
164 1 11.052217 5.871428 3.389870
165 1 9.824192 5.484926 3.985032
166 1 9.824192 4.536532 5.038330
167 1 11.052217 3.985032 5.484926
168 1 11.052217 2.757569 6.193602
169 1 9.824192 2.095055 6.447917
170 1 9.824192 0.708676 6.742601
171 1 11.052217 0.000000 6.779741
172 1 11.052217 -1.409587 6.631588
173 1 9.824192 -2.095055 6.447917
174 1 9.824192 -3.389870 5.871428
175 1 11.052217 -3.985032 5.484926
176 1 11.052217 -5.038330 4.536532
177 1 9.824192 -5.484926 3.985032
178 1 9.824192 -6.193602 2.757569
179 1 11.052217 -6.447917 2.095055
180 1 11.052217 -6.742601 0.708676
181 1 9.824192 -6.779741 0.000000
182 1 9.824192 -6.631588 -1.409587
183 1 11.052217 -6.447917 -2.095055
184 1 11.052217 -5.871428 -3.389870
185 1 9.824192 -5.484926 -3.985032
186 1 9.824192 -4.536532 -5.038330
187 1 11.052217 -3.985032 -5.484926
188 1 11.052217 -2.757569 -6.193602
189 1 9.824192 -2.095055 -6.447917
190 1 9.824192 -0.708676 -6.742601
191 1 11.052217 -0.000000 -6.779741
192 1 11.052217 1.409587 -6.631588
193 1 9.824192 2.095055 -6.447917
194 1 9.824192 3.389870 -5.871428
195 1 11.052217 3.985032 -5.484926
196 1 11.052217 5.038330 -4.536532
197 1 9.824192 5.484926 -3.985032
198 1 9.824192 6.193602 -2.757569
199 1 11.052217 6.447917 -2.095055
200 1 11.052217 6.742601 -0.708676
201 1 12.280240 6.779741 0.000000
202 1 12.280240 6.631588 1.409587
203 1 13.508265 6.447917 2.095055
204 1 13.508265 5.871428 3.389870
205 1 12.280240 5.484926 3.985032
206 1 12.280240 4.536532 5.038330
207 1 13.508265 3.985032 5.484926
208 1 13.508265 2.757569 6.193602
209 1 12.280240 2.095055 6.447917
210 1 12.280240 0.708676 6.742601
211 1 13.508265 0.000000 6.779741
212 1 13.508265 -1.409587 6.631588
213 1 12.280240 -2.095055 6.447917
214 1 12.280240 -3.389870 5.871428
215 1 13.508265 -3.985032 5.484926
216 1 13.508265 -5.038330 4.536532
217 1 12.280240 -5.484926 3.985032
218 1 12.280240 -6.193602 2.757569
219 1 13.508265 -6.447917 2.095055
220 1 13.508265 -6.742601 0.708676
221 1 12.280240 -6.779741 0.000000
222 1 12.280240 -6.631588 -1.409587
223 1 13.508265 -6.447917 -2.095055
224 1 13.508265 -5.871428 -3.389870
225 1 12.280240 -5.484926 -3.985032
226 1 12.280240 -4.536532 -5.038330
227 1 13.508265 -3.985032 -5.484926
228 1 13.508265 -2.757569 -6.193602
229 1 12.280240 -2.095055 -6.447917
230 1 12.280240 -0.708676 -6.742601
231 1 13.508265 -0.000000 -6.779741
232 1 13.508265 1.409587 -6.631588
233 1 12.280240 2.095055 -6.447917
234 1 12.280240 3.389870 -5.871428
235 1 13.508265 3.985032 -5.484926
236 1 13.508265 5.038330 -4.536532
237 1 12.280240 5.484926 -3.985032
238 1 12.280240 6.193602 -2.757569
239 1 13.508265 6.447917 -2.095055
240 1 13.508265 6.742601 -0.708676
241 1 14.736288 6.779741 0.000000
242 1 14.736288 6.631588 1.409587
243 1 15.964313 6.447917 2.095055
244 1 15.964313 5.871428 3.389870
245 1 14.736288 5.484926 3.985032
246 1 14.736288 4.536532 5.038330
247 1 15.964313 3.985032 5.484926
248 1 15.964313 2.757569 6.193602
249 1 14.736288 2.095055 6.447917
250 1 14.736288 0.708676 6.742601
251 1 15.964313 0.000000 6.779741
252 1 15.964313 -1.409587 6.631588
253 1 14.736288 -2.095055 6.447917
254 1 14.736288 -3.389870 5.871428
255 1 15.964313 -3.985032 5.484926
256 1 15.964313 -5.038330 4.536532
257 1 14.736288 -5.484926 3.985032
258 1 14.736288 -6.193602 2.757569
259 1 15.964313 -6.447917 2.095055
260 1 15.964313 -6.742601 0.708676
261 1 14.736288 -6.779741 0.000000
262 1 14.736288 -6.631588 -1.409587
263 1 15.964313 -6.447917 -2.095055
264 1 15.964313 -5.871428 -3.389870
265 1 14.736288 -5.484926 -3.985032
266 1 14.736288 -4.536532 -5.038330
267 1 15.964313 -3.985032 -5.484926
268 1 15.964313 -2.757569 -6.193602
269 1 14.736288 -2.095055 -6.447917
270 1 14.736288 -0.708676 -6.742601
271 1 15.964313 -0.000000 -6.779741
272 1 15.964313 1.409587 -6.631588
273 1 14.736288 2.095055 -6.447917
274 1 14.736288 3.389870 -5.871428
275 1 15.964313 3.985032 -5.484926
276 1 15.964313 5.038330 -4.536532
277 1 14.736288 5.484926 -3.985032
278 1 14.736288 6.193602 -2.757569
279 1 15.964313 6.447917 -2.095055
280 1 15.964313 6.742601 -0.708676
281 1 17.192337 6.779741 0.000000
282 1 17.192337 6.631588 1.409587
283 1 18.420361 6.447917 2.095055
284 1 18.420361 5.871428 3.389870
285 1 17.192337 5.484926 3.985032
286 1 17.192337 4.536532 5.038330
287 1 18.420361 3.985032 5.484926
288 1 18.420361 2.757569 6.193602
289 1 17.192337 2.095055 6.447917
290 1 17.192337 0.708676 6.742601
291 1 18.420361 0.000000 6.779741
292 1 18.420361 -1.409587 6.631588
293 1 17.192337 -2.095055 6.447917
294 1 17.192337 -3.389870 5.871428
295 1 18.420361 -3.985032 5.484926
296 1 18.420361 -5.038330 4.536532
297 1 17.192337 -5.484926 3.985032
298 1 17.192337 -6.193602 2.757569
299 1 18.420361 -6.447917 2.095055
300 1 18.420361 -6.742601 0.708676
301 1 17.192337 -6.779741 0.000000
302 1 17.192337 -6.631588 -1.409587
303 1 18.420361 -6.447917 -2.095055
304 1 18.420361 -5.871428 -3.389870
305 1 17.192337 -5.484926 -3.985032
306 1 17.192337 -4.536532 -5.038330
307 1 18.420361 -3.985032 -5.484926
308 1 18.420361 -2.757569 -6.193602
309 1 17.192337 -2.095055 -6.447917
310 1 17.192337 -0.708676 -6.742601
311 1 18.420361 -0.000000 -6.779741
312 1 18.420361 1.409587 -6.631588
313 1 17.192337 2.095055 -6.447917
314 1 17.192337 3.389870 -5.871428
315 1 18.420361 3.985032 -5.484926
316 1 18.420361 5.038330 -4.536532
317 1 17.192337 5.484926 -3.985032
318 1 17.192337 6.193602 -2.757569
319 1 18.420361 6.447917 -2.095055
320 1 18.420361 6.742601 -0.708676
321 1 19.648384 6.779741 0.000000
322 1 19.648384 6.631588 1.409587
323 1 20.876408 6.447917 2.095055
324 1 20.876408 5.871428 3.389870
325 1 19.648384 5.484926 3.985032
326 1 19.648384 4.536532 5.038330
327 1 20.876408 3.985032 5.484926
328 1 20.876408 2.757569 6.193602
329 1 19.648384 2.095055 6.447917
330 1 19.648384 0.708676 6.742601
331 1 20.876408 0.000000 6.779741
332 1 20.876408 -1.409587 6.631588
333 1 19.648384 -2.095055 6.447917
334 1 19.648384 -3.389870 5.871428
335 1 20.876408 -3.985032 5.484926
336 1 20.876408 -5.038330 4.536532
337 1 19.648384 -5.484926 3.985032
338 1 19.648384 -6.193602 2.757569
339 1 20.876408 -6.447917 2.095055
340 1 20.876408 -6.742601 0.708676
341 1 19.648384 -6.779741 0.000000
342 1 19.648384 -6.631588 -1.409587
343 1 20.876408 -6.447917 -2.095055
344 1 20.876408 -5.871428 -3.389870
345 1 19.648384 -5.484926 -3.985032
346 1 19.648384 -4.536532 -5.038330
347 1 20.876408 -3.985032 -5.484926
348 1 20.876408 -2.757569 -6.193602
349 1 19.648384 -2.095055 -6.447917
350 1 19.648384 -0.708676 -6.742601
351 1 20.876408 -0.000000 -6.779741
352 1 20.876408 1.409587 -6.631588
353 1 19.648384 2.095055 -6.447917
354 1 19.648384 3.389870 -5.871428
355 1 20.876408 3.985032 -5.484926
356 1 20.876408 5.038330 -4.536532
357 1 19.648384 5.484926 -3.985032
358 1 19.648384 6.193602 -2.757569
359 1 20.876408 6.447917 -2.095055
360 1 20.876408 6.742601 -0.708676
361 1 22.104433 6.779741 0.000000
362 1 22.104433 6.631588 1.409587
363 1 23.332457 6.447917 2.095055
364 1 23.332457 5.871428 3.389870
365 1 22.104433 5.484926 3.985032
366 1 22.104433 4.536532 5.038330
367 1 23.332457 3.985032 5.484926
368 1 23.332457 2.757569 6.193602
369 1 22.104433 2.095055 6.447917
370 1 22.104433 0.708676 6.742601
371 1 23.332457 0.000000 6.779741
372 1 23.332457 -1.409587 6.631588
373 1 22.104433 -2.095055 6.447917
374 1 22.104433 -3.389870 5.871428
375 1 23.332457 -3.985032 5.484926
376 1 23.332457 -5.038330 4.536532
377 1 22.104433 -5.484926 3.985032
378 1 22.104433 -6.193602 2.757569
379 1 23.332457 -6.447917 2.095055
380 1 23.332457 -6.742601 0.708676
381 1 22.104433 -6.779741 0.000000
382 1 22.104433 -6.631588 -1.409587
383 1 23.332457 -6.447917 -2.095055
384 1 23.332457 -5.871428 -3.389870
385 1 22.104433 -5.484926 -3.985032
386 1 22.104433 -4.536532 -5.038330
387 1 23.332457 -3.985032 -5.484926
388 1 23.332457 -2.757569 -6.193602
389 1 22.104433 -2.095055 -6.447917
390 1 22.104433 -0.708676 -6.742601
391 1 23.332457 -0.000000 -6.779741
392 1 23.332457 1.409587 -6.631588
393 1 22.104433 2.095055 -6.447917
394 1 22.104433 3.389870 -5.871428
395 1 23.332457 3.985032 -5.484926
396 1 23.332457 5.038330 -4.536532
397 1 22.104433 5.484926 -3.985032
398 1 22.104433 6.193602 -2.757569
399 1 23.332457 6.447917 -2.095055
400 1 23.332457 6.742601 -0.708676
401 1 24.560480 6.779741 0.000000
402 1 24.560480 6.631588 1.409587
403 1 25.788504 6.447917 2.095055
404 1 25.788504 5.871428 3.389870
405 1 24.560480 5.484926 3.985032
406 1 24.560480 4.536532 5.038330
407 1 25.788504 3.985032 5.484926
408 1 25.788504 2.757569 6.193602
409 1 24.560480 2.095055 6.447917
410 1 24.560480 0.708676 6.742601
411 1 25.788504 0.000000 6.779741
412 1 25.788504 -1.409587 6.631588
413 1 24.560480 -2.095055 6.447917
414 1 24.560480 -3.389870 5.871428
415 1 25.788504 -3.985032 5.484926
416 1 25.788504 -5.038330 4.536532
417 1 24.560480 -5.484926 3.985032
418 1 24.560480 -6.193602 2.757569
419 1 25.788504 -6.447917 2.095055
420 1 25.788504 -6.742601 0.708676
421 1 24.560480 -6.779741 0.000000
422 1 24.560480 -6.631588 -1.409587
423 1 25.788504 -6.447917 -2.095055
424 1 25.788504 -5.871428 -3.389870
425 1 24.560480 -5.484926 -3.985032
426 1 24.560480 -4.536532 -5.038330
427 1 25.788504 -3.985032 -5.484926
428 1 25.788504 -2.757569 -6.193602
429 1 24.560480 -2.095055 -6.447917
430 1 24.560480 -0.708676 -6.742601
431 1 25.788504 -0.000000 -6.779741
432 1 25.788504 1.409587 -6.631588
433 1 24.560480 2.095055 -6.447917
434 1 24.560480 3.389870 -5.871428
435 1 25.788504 3.985032 -5.484926
436 1 25.788504 5.038330 -4.536532
437 1 24.560480 5.484926 -3.985032
438 1 24.560480 6.193602 -2.757569
439 1 25.788504 6.447917 -2.095055
440 1 25.788504 6.742601 -0.708676
441 1 27.016529 6.779741 0.000000
442 1 27.016529 6.631588 1.409587
443 1 28.244553 6.447917 2.095055
444 1 28.244553 5.871428 3.389870
445 1 27.016529 5.484926 3.985032
446 1 27.016529 4.536532 5.038330
447 1 28.244553 3.985032 5.484926
448 1 28.244553 2.757569 6.193602
449 1 27.016529 2.095055 6.447917
450 1 27.016529 0.708676 6.742601
451 1 28.244553 0.000000 6.779741
452 1 28.244553 -1.409587 6.631588
453 1 27.016529 -2.095055 6.447917
454 1 27.016529 -3.389870 5.871428
455 1 28.244553 -3.985032 5.484926
456 1 28.244553 -5.038330 4.536532
457 1 27.016529 -5.484926 3.985032
458 1 27.016529 -6.193602 2.757569
459 1 28.244553 -6.447917 2.095055
460 1 28.244553 -6.742601 0.708676
461 1 27.016529 -6.779741 0.000000
462 1 27.016529 -6.631588 -1.409587
463 1 28.244553 -6.447917 -2.095055
464 1 28.244553 -5.871428 -3.389870
465 1 27.016529 -5.484926 -3.985032
466 1 27.016529 -4.536532 -5.038330
467 1 28.244553 -3.985032 -5.484926
468 1 28.244553 -2.757569 -6.193602
469 1 27.016529 -2.095055 -6.447917
470 1 27.016529 -0.708676 -6.742601
471 1 28.244553 -0.000000 -6.779741
472 1 28.244553 1.409587 -6.631588
473 1 27.016529 2.095055 -6.447917
474 1 27.016529 3.389870 -5.871428
475 1 28.244553 3.985032 -5.484926
476 1 28.244553 5.038330 -4.536532
477 1 27.016529 5.484926 -3.985032
478 1 27.016529 6.193602 -2.757569
479 1 28.244553 6.447917 -2.095055
480 1 28.244553 6.742601 -0.708676
481 1 29.472576 6.779741 0.000000
482 1 29.472576 6.631588 1.409587
483 1 30.700600 6.447917 2.095055
484 1 30.700600 5.871428 3.389870
485 1 29.472576 5.484926 3.985032
486 1 29.472576 4.536532 5.038330
487 1 30.700600 3.985032 5.484926
488 1 30.700600 2.757569 6.193602
489 1 29.472576 2.095055 6.447917
490 1 29.472576 0.708676 6.742601
491 1 30.700600 0.000000 6.779741
492 1 30.700600 -1.409587 6.631588
493 1 29.472576 -2.095055 6.447917
494 1 29.472576 -3.389870 5.871428
495 1 30.700600 -3.985032 5.484926
496 1 30.700600 -5.038330 4.536532
497 1 29.472576 -5.484926 3.985032
498 1 29.472576 -6.193602 2.757569
499 1 30.700600 -6.447917 2.095055
500 1 30.700600 -6.742601 0.708676
501 1 29.472576 -6.779741 0.000000
502 1 29.472576 -6.631588 -1.409587
503 1 30.700600 -6.447917 -2.095055
504 1 30.700600 -5.871428 -3.389870
505 1 29.472576 -5.484926 -3.985032
506 1 29.472576 -4.536532 -5.038330
507 1 30.700600 -3.985032 -5.484926
508 1 30.700600 -2.757569 -6.193602
509 1 29.472576 -2.095055 -6.447917
510 1 29.472576 -0.708676 -6.742601
511 1 30.700600 -0.000000 -6.779741
512 1 30.700600 1.409587 -6.631588
513 1 29.472576 2.095055 -6.447917
514 1 29.472576 3.389870 -5.871428
515 1 30.700600 3.985032 -5.484926
516 1 30.700600 5.038330 -4.536532
517 1 29.472576 5.484926 -3.985032
518 1 29.472576 6.193602 -2.757569
519 1 30.700600 6.447917 -2.095055
520 1 30.700600 6.742601 -0.708676
521 1 31.928625 6.779741 0.000000
522 1 31.928625 6.631588 1.409587
523 1 33.156647 6.447917 2.095055
524 1 33.156647 5.871428 3.389870
525 1 31.928625 5.484926 3.985032
526 1 31.928625 4.536532 5.038330
527 1 33.156647 3.985032 5.484926
528 1 33.156647 2.757569 6.193602
529 1 31.928625 2.095055 6.447917
530 1 31.928625 0.708676 6.742601
531 1 33.156647 0.000000 6.779741
532 1 33.156647 -1.409587 6.631588
533 1 31.928625 -2.095055 6.447917
534 1 31.928625 -3.389870 5.871428
535 1 33.156647 -3.985032 5.484926
536 1 33.156647 -5.038330 4.536532
537 1 31.928625 -5.484926 3.985032
538 1 31.928625 -6.193602 2.757569
539 1 33.156647 -6.447917 2.095055
540 1 33.156647 -6.742601 0.708676
541 1 31.928625 -6.779741 0.000000
542 1 31.928625 -6.631588 -1.409587
543 1 33.156647 -6.447917 -2.095055
544 1 33.156647 -5.871428 -3.389870
545 1 31.928625 -5.484926 -3.985032
546 1 31.928625 -4.536532 -5.038330
547 1 33.156647 -3.985032 -5.484926
548 1 33.156647 -2.757569 -6.193602
549 1 31.928625 -2.095055 -6.447917
550 1 31.928625 -0.708676 -6.742601
551 1 33.156647 -0.000000 -6.779741
552 1 33.156647 1.409587 -6.631588
553 1 31.928625 2.095055 -6.447917
554 1 31.928625 3.389870 -5.871428
555 1 33.156647 3.985032 -5.484926
556 1 33.156647 5.038330 -4.536532
557 1 31.928625 5.484926 -3.985032
558 1 31.928625 6.193602 -2.757569
559 1 33.156647 6.447917 -2.095055
560 1 33.156647 6.742601 -0.708676
561 1 34.384674 6.779741 0.000000
562 1 34.384674 6.631588 1.409587
563 1 35.612698 6.447917 2.095055
564 1 35.612698 5.871428 3.389870
565 1 34.384674 5.484926 3.985032
566 1 34.384674 4.536532 5.038330
567 1 35.612698 3.985032 5.484926
568 1 35.612698 2.757569 6.193602
569 1 34.384674 2.095055 6.447917
570 1 34.384674 0.708676 6.742601
571 1 35.612698 0.000000 6.779741
572 1 35.612698 -1.409587 6.631588
573 1 34.384674 -2.095055 6.447917
574 1 34.384674 -3.389870 5.871428
575 1 35.612698 -3.985032 5.484926
576 1 35.612698 -5.038330 4.536532
577 1 34.384674 -5.484926 3.985032
578 1 34.384674 -6.193602 2.757569
579 1 35.612698 -6.447917 2.095055
580 1 35.612698 -6.742601 0.708676
581 1 34.384674 -6.779741 0.000000
582 1 34.384674 -6.631588 -1.409587
583 1 35.612698 -6.447917 -2.095055
584 1 35.612698 -5.871428 -3.389870
585 1 34.384674 -5.484926 -3.985032
586 1 34.384674 -4.536532 -5.038330
587 1 35.612698 -3.985032 -5.484926
588 1 35.612698 -2.757569 -6.193602
589 1 34.384674 -2.095055 -6.447917
590 1 34.384674 -0.708676 -6.742601
591 1 35.612698 -0.000000 -6.779741
592 1 35.612698 1.409587 -6.631588
593 1 34.384674 2.095055 -6.447917
594 1 34.384674 3.389870 -5.871428
595 1 35.612698 3.985032 -5.484926
596 1 35.612698 5.038330 -4.536532
597 1 34.384674 5.484926 -3.985032
598 1 34.384674 6.193602 -2.757569
599 1 35.612698 6.447917 -2.095055
600 1 35.612698 6.742601 -0.708676
601 1 36.840721 6.779741 0.000000
602 1 36.840721 6.631588 1.409587
603 1 38.068745 6.447917 2.095055
604 1 38.068745 5.871428 3.389870
605 1 36.840721 5.484926 3.985032
606 1 36.840721 4.536532 5.038330
607 1 38.068745 3.985032 5.484926
608 1 38.068745 2.757569 6.193602
609 1 36.840721 2.095055 6.447917
610 1 36.840721 0.708676 6.742601
611 1 38.068745 0.000000 6.779741
612 1 38.068745 -1.409587 6.631588
613 1 36.840721 -2.095055 6.447917
614 1 36.840721 -3.389870 5.871428
615 1 38.068745 -3.985032 5.484926
616 1 38.068745 -5.038330 4.536532
617 1 36.840721 -5.484926 3.985032
618 1 36.840721 -6.193602 2.757569
619 1 38.068745 -6.447917 2.095055
620 1 38.068745 -6.742601 0.708676
621 1 36.840721 -6.779741 0.000000
622 1 36.840721 -6.631588 -1.409587
623 1 38.068745 -6.447917 -2.095055
624 1 38.068745 -5.871428 -3.389870
625 1 36.840721 -5.484926 -3.985032
626 1 36.840721 -4.536532 -5.038330
627 1 38.068745 -3.985032 -5.484926
628 1 38.068745 -2.757569 -6.193602
629 1 36.840721 -2.095055 -6.447917
630 1 36.840721 -0.708676 -6.742601
631 1 38.068745 -0.000000 -6.779741
632 1 38.068745 1.409587 -6.631588
633 1 36.840721 2.095055 -6.447917
634 1 36.840721 3.389870 -5.871428
635 1 38.068745 3.985032 -5.484926
636 1 38.068745 5.038330 -4.536532
637 1 36.840721 5.484926 -3.985032
638 1 36.840721 6.193602 -2.757569
639 1 38.068745 6.447917 -2.095055
640 1 38.068745 6.742601 -0.708676
641 1 39.296768 6.779741 0.000000
642 1 39.296768 6.631588 1.409587
643 1 40.524792 6.447917 2.095055
644 1 40.524792 5.871428 3.389870
645 1 39.296768 5.484926 3.985032
646 1 39.296768 4.536532 5.038330
647 1 40.524792 3.985032 5.484926
648 1 40.524792 2.757569 6.193602
649 1 39.296768 2.095055 6.447917
650 1 39.296768 0.708676 6.742601
651 1 40.524792 0.000000 6.779741
652 1 40.524792 -1.409587 6.631588
653 1 39.296768 -2.095055 6.447917
654 1 39.296768 -3.389870 5.871428
655 1 40.524792 -3.985032 5.484926
656 1 40.524792 -5.038330 4.536532
657 1 39.296768 -5.484926 3.985032
658 1 39.296768 -6.193602 2.757569
659 1 40.524792 -6.447917 2.095055
660 1 40.524792 -6.742601 0.708676
661 1 39.296768 -6.779741 0.000000
662 1 39.296768 -6.631588 -1.409587
663 1 40.524792 -6.447917 -2.095055
664 1 40.524792 -5.871428 -3.389870
665 1 39.296768 -5.484926 -3.985032
666 1 39.296768 -4.536532 -5.038330
667 1 40.524792 -3.985032 -5.484926
668 1 40.524792 -2.757569 -6.193602
669 1 39.296768 -2.095055 -6.447917
670 1 39.296768 -0.708676 -6.742601
671 1 40.524792 -0.000000 -6.779741
672 1 40.524792 1.409587 -6.631588
673 1 39.296768 2.095055 -6.447917
674 1 39.296768 3.389870 -5.871428
675 1 40.524792 3.985032 -5.484926
676 1 40.524792 5.038330 -4.536532
677 1 39.296768 5.484926 -3.985032
678 1 39.296768 6.193602 -2.757569
679 1 40.524792 6.447917 -2.095055
680 1 40.524792 6.742601 -0.708676
681 1 41.752815 6.779741 0.000000
682 1 41.752815 6.631588 1.409587
683 1 42.980843 6.447917 2.095055
684 1 42.980843 5.871428 3.389870
685 1 41.752815 5.484926 3.985032
686 1 41.752815 4.536532 5.038330
687 1 42.980843 3.985032 5.484926
688 1 42.980843 2.757569 6.193602
689 1 41.752815 2.095055 6.447917
690 1 41.752815 0.708676 6.742601
691 1 42.980843 0.000000 6.779741
692 1 42.980843 -1.409587 6.631588
693 1 41.752815 -2.095055 6.447917
694 1 41.752815 -3.389870 5.871428
695 1 42.980843 -3.985032 5.484926
696 1 42.980843 -5.038330 4.536532
697 1 41.752815 -5.484926 3.985032
698 1 41.752815 -6.193602 2.757569
699 1 42.980843 -6.447917 2.095055
700 1 42.980843 -6.742601 0.708676
701 1 41.752815 -6.779741 0.000000
702 1 41.752815 -6.631588 -1.409587
703 1 42.980843 -6.447917 -2.095055
704 1 42.980843 -5.871428 -3.389870
705 1 41.752815 -5.484926 -3.985032
706 1 41.752815 -4.536532 -5.038330
707 1 42.980843 -3.985032 -5.484926
708 1 42.980843 -2.757569 -6.193602
709 1 41.752815 -2.095055 -6.447917
710 1 41.752815 -0.708676 -6.742601
711 1 42.980843 -0.000000 -6.779741
712 1 42.980843 1.409587 -6.631588
713 1 41.752815 2.095055 -6.447917
714 1 41.752815 3.389870 -5.871428
715 1 42.980843 3.985032 -5.484926
716 1 42.980843 5.038330 -4.536532
717 1 41.752815 5.484926 -3.985032
718 1 41.752815 6.193602 -2.757569
719 1 42.980843 6.447917 -2.095055
720 1 42.980843 6.742601 -0.708676
721 1 44.208866 6.779741 0.000000
722 1 44.208866 6.631588 1.409587
723 1 45.436890 6.447917 2.095055
724 1 45.436890 5.871428 3.389870
725 1 44.208866 5.484926 3.985032
726 1 44.208866 4.536532 5.038330
727 1 45.436890 3.985032 5.484926
728 1 45.436890 2.757569 6.193602
729 1 44.208866 2.095055 6.447917
730 1 44.208866 0.708676 6.742601
731 1 45.436890 0.000000 6.779741
732 1 45.436890 -1.409587 6.631588
733 1 44.208866 -2.095055 6.447917
734 1 44.208866 -3.389870 5.871428
735 1 45.436890 -3.985032 5.484926
736 1 45.436890 -5.038330 4.536532
737 1 44.208866 -5.484926 3.985032
738 1 44.208866 -6.193602 2.757569
739 1 45.436890 -6.447917 2.095055
740 1 45.436890 -6.742601 0.708676
741 1 44.208866 -6.779741 0.000000
742 1 44.208866 -6.631588 -1.409587
743 1 45.436890 -6.447917 -2.095055
744 1 45.436890 -5.871428 -3.389870
745 1 44.208866 -5.484926 -3.985032
746 1 44.208866 -4.536532 -5.038330
747 1 45.436890 -3.985032 -5.484926
748 1 45.436890 -2.757569 -6.193602
749 1 44.208866 -2.095055 -6.447917
750 1 44.208866 -0.708676 -6.742601
751 1 45.436890 -0.000000 -6.779741
752 1 45.436890 1.409587 -6.631588
753 1 44.208866 2.095055 -6.447917
754 1 44.208866 3.389870 -5.871428
755 1 45.436890 3.985032 -5.484926
756 1 45.436890 5.038330 -4.536532
757 1 44.208866 5.484926 -3.985032
758 1 44.208866 6.193602 -2.757569
759 1 45.436890 6.447917 -2.095055
760 1 45.436890 6.742601 -0.708676
761 1 46.664913 6.779741 0.000000
762 1 46.664913 6.631588 1.409587
763 1 47.892937 6.447917 2.095055
764 1 47.892937 5.871428 3.389870
765 1 46.664913 5.484926 3.985032
766 1 46.664913 4.536532 5.038330
767 1 47.892937 3.985032 5.484926
768 1 47.892937 2.757569 6.193602
769 1 46.664913 2.095055 6.447917
770 1 46.664913 0.708676 6.742601
771 1 47.892937 0.000000 6.779741
772 1 47.892937 -1.409587 6.631588
773 1 46.664913 -2.095055 6.447917
774 1 46.664913 -3.389870 5.871428
775 1 47.892937 -3.985032 5.484926
776 1 47.892937 -5.038330 4.536532
777 1 46.664913 -5.484926 3.985032
778 1 46.664913 -6.193602 2.757569
779 1 47.892937 -6.447917 2.095055
780 1 47.892937 -6.742601 0.708676
781 1 46.664913 -6.779741 0.000000
782 1 46.664913 -6.631588 -1.409587
783 1 47.892937 -6.447917 -2.095055
784 1 47.892937 -5.871428 -3.389870
785 1 46.664913 -5.484926 -3.985032
786 1 46.664913 -4.536532 -5.038330
787 1 47.892937 -3.985032 -5.484926
788 1 47.892937 -2.757569 -6.193602
789 1 46.664913 -2.095055 -6.447917
790 1 46.664913 -0.708676 -6.742601
791 1 47.892937 -0.000000 -6.779741
792 1 47.892937 1.409587 -6.631588
793 1 46.664913 2.095055 -6.447917
794 1 46.664913 3.389870 -5.871428
795 1 47.892937 3.985032 -5.484926
796 1 47.892937 5.038330 -4.536532
797 1 46.664913 5.484926 -3.985032
798 1 46.664913 6.193602 -2.757569
799 1 47.892937 6.447917 -2.095055
800 1 47.892937 6.742601 -0.708676
801 1 49.120960 6.779741 0.000000
802 1 49.120960 6.631588 1.409587
803 1 50.348984 6.447917 2.095055
804 1 50.348984 5.871428 3.389870
805 1 49.120960 5.484926 3.985032
806 1 49.120960 4.536532 5.038330
807 1 50.348984 3.985032 5.484926
808 1 50.348984 2.757569 6.193602
809 1 49.120960 2.095055 6.447917
810 1 49.120960 0.708676 6.742601
811 1 50.348984 0.000000 6.779741
812 1 50.348984 -1.409587 6.631588
813 1 49.120960 -2.095055 6.447917
814 1 49.120960 -3.389870 5.871428
815 1 50.348984 -3.985032 5.484926
816 1 50.348984 -5.038330 4.536532
817 1 49.120960 -5.484926 3.985032
818 1 49.120960 -6.193602 2.757569
819 1 50.348984 -6.447917 2.095055
820 1 50.348984 -6.742601 0.708676
821 1 49.120960 -6.779741 0.000000
822 1 49.120960 -6.631588 -1.409587
823 1 50.348984 -6.447917 -2.095055
824 1 50.348984 -5.871428 -3.389870
825 1 49.120960 -5.484926 -3.985032
826 1 49.120960 -4.536532 -5.038330
827 1 50.348984 -3.985032 -5.484926
828 1 50.348984 -2.757569 -6.193602
829 1 49.120960 -2.095055 -6.447917
830 1 49.120960 -0.708676 -6.742601
831 1 50.348984 -0.000000 -6.779741
832 1 50.348984 1.409587 -6.631588
833 1 49.120960 2.095055 -6.447917
834 1 49.120960 3.389870 -5.871428
835 1 50.348984 3.985032 -5.484926
836 1 50.348984 5.038330 -4.536532
837 1 49.120960 5.484926 -3.985032
838 1 49.120960 6.193602 -2.757569
839 1 50.348984 6.447917 -2.095055
840 1 50.348984 6.742601 -0.708676
841 1 51.577007 6.779741 0.000000
842 1 51.577007 6.631588 1.409587
843 1 52.805035 6.447917 2.095055
844 1 52.805035 5.871428 3.389870
845 1 51.577007 5.484926 3.985032
846 1 51.577007 4.536532 5.038330
847 1 52.805035 3.985032 5.484926
848 1 52.805035 2.757569 6.193602
849 1 51.577007 2.095055 6.447917
850 1 51.577007 0.708676 6.742601
851 1 52.805035 0.000000 6.779741
852 1 52.805035 -1.409587 6.631588
853 1 51.577007 -2.095055 6.447917
854 1 51.577007 -3.389870 5.871428
855 1 52.805035 -3.985032 5.484926
856 1 52.805035 -5.038330 4.536532
857 1 51.577007 -5.484926 3.985032
858 1 51.577007 -6.193602 2.757569
859 1 52.805035 -6.447917 2.095055
860 1 52.805035 -6.742601 0.708676