LAMMPS Description
 
          84  atoms
          85  bonds
         146  angles
         207  dihedrals
          12  impropers
 
          12  atom types
          17  bond types
          30  angle types
          21  dihedral types
           2  improper types
 
 36.840194 64.211560 xlo xhi
 41.013691 68.385058 ylo yhi
 29.768095 57.139462 zlo zhi
 
Masses
 
  1 12.0110
  2 12.0110
  3 15.9990
  4  1.0080
  5 14.0070
  6 12.0110
  7 12.0110
  8 12.0110
  9 15.9990
 10  1.0080
 11  1.0080
 12 32.0660
 
Pair Coeffs
 
  1    0.110000    3.563595    0.110000    3.563595
  2    0.080000    3.670503    0.010000    3.385415
  3    0.120000    3.029056    0.120000    2.494516
  4    0.022000    2.351973    0.022000    2.351973
  5    0.200000    3.296325    0.200000    2.761786
  6    0.020000    4.053589    0.010000    3.385415
  7    0.055000    3.875410    0.010000    3.385415
  8    0.070000    3.550053    0.070000    3.550053
  9    0.152100    3.153782    0.152100    3.153782
 10    0.046000    0.400014    0.046000    0.400014
 11    0.030000    2.420037    0.030000    2.420037
 12    0.450000    3.563595    0.450000    3.563595
 
Bond Coeffs
 
  1  249.999999    1.490000
  2  620.000001    1.230000
  3  370.000000    1.345000
  4  322.000001    1.111000
  5  319.999999    1.430000
  6  440.000000    0.997000
  7  222.500001    1.538000
  8  330.000001    1.080000
  9  230.000000    1.490000
 10  309.000001    1.111000
 11  305.000000    1.375000
 12  340.000001    1.080000
 13  334.300000    1.411000
 14  545.000001    0.960000
 15  222.500001    1.530000
 16  198.000000    1.818000
 17  239.999999    1.816000
 
Angle Coeffs
 
  1   33.000000  109.500000   30.000000    2.163000
  2   50.000000  120.000000    0.000000    0.000000
  3   34.000000  123.000000    0.000000    0.000000
  4   80.000000  121.000000    0.000000    0.000000
  5   80.000000  116.500000    0.000000    0.000000
  6   80.000000  122.500000    0.000000    0.000000
  7   35.500000  108.400000    5.400000    1.802000
  8   50.000000  107.000000    0.000000    0.000000
  9   70.000000  113.500000    0.000000    0.000000
 10   48.000000  108.000000    0.000000    0.000000
 11   35.000000  117.000000    0.000000    0.000000
 12   51.800000  107.500000    0.000000    0.000000
 13   33.430000  110.100000   22.530000    2.179000
 14   52.000000  108.000000    0.000000    0.000000
 15   50.000000  109.500000    0.000000    0.000000
 16   35.000000  111.000000    0.000000    0.000000
 17   45.800000  122.300000    0.000000    0.000000
 18   49.300000  107.500000    0.000000    0.000000
 19   40.000000  120.000000   35.000000    2.416200
 20   30.000000  120.000000   22.000000    2.152500
 21   45.200000  120.000000    0.000000    0.000000
 22   65.000000  108.000000    0.000000    0.000000
 23   35.500000  109.000000    5.400000    1.802000
 24   36.000000  115.000000    0.000000    0.000000
 25   58.350000  113.500000   11.160000    2.561000
 26   58.000000  114.500000    0.000000    0.000000
 27   26.500000  110.100000   22.530000    2.179000
 28   34.000000   95.000000    0.000000    0.000000
 29   46.100000  111.300000    0.000000    0.000000
 30   51.500000  109.500000    0.000000    0.000000
 
Dihedral Coeffs
 
  1    0.200000   1 180    1.000000
  2    1.800000   1   0    1.000000
  3    0.000000   1   0    1.000000
  4    1.600000   1   0    0.500000
  5    2.500000   2 180    0.500000
  6    2.500000   2 180    1.000000
  7    0.600000   1   0    1.000000
  8    0.200000   3   0    1.000000
  9    0.230000   2 180    1.000000
 10    0.040000   3   0    1.000000
 11    1.400000   1   0    1.000000
 12    3.100000   2 180    1.000000
 13    4.200000   2 180    1.000000
 14    3.100000   2 180    0.500000
 15    0.990000   2 180    1.000000
 16    2.400000   2 180    1.000000
 17    0.195000   3   0    1.000000
 18    0.240000   1 180    0.500000
 19    0.370000   3   0    0.500000
 20    0.280000   3   0    1.000000
 21    0.010000   3   0    1.000000
 
Improper Coeffs
 
  1  120.000000    0.000000
  2   20.000000    0.000000
 
Atoms
 
      1      1   1   0.510  43.99993  58.52678  36.78550   0   0   0
      2      1   2  -0.270  45.10395  58.23499  35.86693   0   0   0
      3      1   3  -0.510  43.81519  59.54928  37.43995   0   0   0
      4      1   4   0.090  45.71714  57.34797  36.13434   0   0   0
      5      1   4   0.090  45.72261  59.13657  35.67007   0   0   0
      6      1   4   0.090  44.66624  58.09539  34.85538   0   0   0
      7      1   5  -0.470  43.28193  57.47427  36.91953   0   0   0
      8      1   6   0.070  42.07157  57.45486  37.62418   0   0   0
      9      1   1   0.510  42.19985  57.57789  39.12163   0   0   0
     10      1   3  -0.510  41.88641  58.62251  39.70398   0   0   0
     11      1   7  -0.180  41.25052  56.15304  37.41811   0   0   0
     12      1   8   0.000  40.88511  55.94638  35.97460   0   0   0
     13      1   8  -0.115  41.48305  54.96372  35.11223   0   0   0
     14      1   8  -0.115  39.74003  56.60996  35.46443   0   0   0
     15      1   8  -0.115  41.02111  54.75715  33.80764   0   0   0
     16      1   8  -0.115  39.26180  56.39194  34.12024   0   0   0
     17      1   8   0.110  39.92330  55.46092  33.27135   0   0   0
     18      1   9  -0.540  39.48164  55.22919  31.91865   0   0   0
     19      1  10   0.310  43.60633  56.61693  36.52744   0   0   0
     20      1   4   0.090  41.49619  58.31145  37.30543   0   0   0
     21      1   4   0.090  41.88498  55.29476  37.72657   0   0   0
     22      1   4   0.090  40.30899  56.19690  38.00627   0   0   0
     23      1  11   0.115  42.31528  54.36176  35.44606   0   0   0
     24      1  11   0.115  39.26330  57.31216  36.13230   0   0   0
     25      1  11   0.115  41.62695  54.10606  33.19490   0   0   0
     26      1  11   0.115  38.42147  56.98236  33.78612   0   0   0
     27      1  10   0.430  38.78233  55.86217  31.74004   0   0   0
     28      1   5  -0.470  42.79933  56.56370  39.79000   0   0   0
     29      1   7  -0.020  42.96709  56.75379  41.28116   0   0   0
     30      1   1   0.510  43.83019  55.68988  41.92255   0   0   0
     31      1   3  -0.510  44.98521  55.93104  42.21713   0   0   0
     32      1  10   0.310  43.13466  55.75696  39.30966   0   0   0
     33      1   4   0.090  42.04692  56.86721  41.83507   0   0   0
     34      1   4   0.090  43.52938  57.66324  41.43329   0   0   0
     35      1   5  -0.470  43.26792  54.43342  42.07043   0   0   0
     36      1   7  -0.020  43.92411  53.28930  42.63327   0   0   0
     37      1   1   0.510  43.51012  53.02289  44.10510   0   0   0
     38      1   3  -0.510  42.35086  53.07863  44.50806   0   0   0
     39      1  10   0.310  42.28859  54.34993  41.90323   0   0   0
     40      1   4   0.090  44.98464  53.47473  42.54797   0   0   0
     41      1   4   0.090  43.49715  52.54787  41.97419   0   0   0
     42      1   5  -0.470  44.51925  52.64535  44.88133   0   0   0
     43      1   6   0.070  44.47588  52.35054  46.24397   0   0   0
     44      1   1   0.510  45.40218  53.34579  46.94730   0   0   0
     45      1   3  -0.510  45.23520  54.55893  46.92038   0   0   0
     46      1   7  -0.180  44.77960  50.82831  46.50232   0   0   0
     47      1   8   0.000  43.72184  49.84551  45.98093   0   0   0
     48      1   8  -0.115  44.14810  49.00477  44.97195   0   0   0
     49      1   8  -0.115  42.43499  49.66652  46.53541   0   0   0
     50      1   8  -0.115  43.26154  48.00434  44.46769   0   0   0
     51      1   8  -0.115  41.54732  48.79670  45.95416   0   0   0
     52      1   8  -0.115  41.98220  47.90746  44.95574   0   0   0
     53      1  10   0.310  45.39510  52.50937  44.42482   0   0   0
     54      1   4   0.090  43.51312  52.58974  46.67092   0   0   0
     55      1   4   0.090  44.89709  50.54313  47.56965   0   0   0
     56      1   4   0.090  45.72096  50.49337  46.01654   0   0   0
     57      1  11   0.115  45.13573  49.07933  44.54134   0   0   0
     58      1  11   0.115  42.07869  50.34816  47.29358   0   0   0
     59      1  11   0.115  43.47793  47.29281  43.68456   0   0   0
     60      1  11   0.115  40.52625  48.76134  46.30425   0   0   0
     61      1  11   0.115  41.35446  47.13287  44.54059   0   0   0
     62      1   5  -0.470  46.41448  52.86278  47.68291   0   0   0
     63      1   6   0.070  47.25136  53.68184  48.51163   0   0   0
     64      1   1   0.510  48.33905  54.40097  47.73886   0   0   0
     65      1   3  -0.510  49.27132  53.85220  47.16549   0   0   0
     66      1   7  -0.180  47.88329  52.75681  49.60227   0   0   0
     67      1   7  -0.140  48.82515  53.51102  50.61578   0   0   0
     68      1  12  -0.090  48.12492  55.00373  51.43039   0   0   0
     69      1   2  -0.220  47.70783  54.12980  53.04072   0   0   0
     70      1  10   0.310  46.67199  51.90088  47.73231   0   0   0
     71      1   4   0.090  46.64593  54.43552  48.99310   0   0   0
     72      1   4   0.090  48.41361  51.90817  49.11968   0   0   0
     73      1   4   0.090  47.08748  52.35196  50.26341   0   0   0
     74      1   4   0.090  49.16067  52.81305  51.41238   0   0   0
     75      1   4   0.090  49.73705  53.67062  50.00155   0   0   0
     76      1   4   0.090  47.18593  54.84215  53.71488   0   0   0
     77      1   4   0.090  48.69939  53.91624  53.49408   0   0   0
     78      1   4   0.090  47.19749  53.18294  52.76264   0   0   0
     79      1   5  -0.470  48.34472  55.71775  47.80498   0   0   0
     80      1   2  -0.110  49.37792  56.51754  47.29492   0   0   0
     81      1  10   0.310  47.51777  56.11617  48.19410   0   0   0
     82      1   4   0.090  50.41495  56.13038  47.38980   0   0   0
     83      1   4   0.090  49.23515  57.51193  47.76940   0   0   0
     84      1   4   0.090  49.28612  56.52094  46.18773   0   0   0
 
Velocities
 
      1   -0.000671   -0.002823    0.003832
      2   -0.001597    0.002405   -0.003777
      3    0.005494    0.003807   -0.002300
      4   -0.000077    0.004524   -0.000287
      5    0.003116   -0.007135   -0.034325
      6   -0.006676    0.004889   -0.001939
      7    0.003499   -0.004774    0.000159
      8   -0.003460    0.000694    0.000994
      9   -0.000065   -0.001353   -0.002848
     10   -0.001260   -0.002649    0.000699
     11   -0.002820   -0.002457   -0.005671
     12    0.005156   -0.005914    0.000984
     13   -0.002342   -0.001592    0.004306
     14    0.004397   -0.000231    0.003308
     15   -0.003258   -0.000006    0.001838
     16   -0.001637   -0.004429    0.003154
     17    0.007073   -0.000472   -0.003331
     18   -0.003380   -0.001390    0.005013
     19   -0.011019   -0.005332   -0.010451
     20   -0.005433    0.000844    0.004938
     21    0.002988    0.000244   -0.009941
     22   -0.003695    0.006546   -0.007678
     23    0.009473    0.023276    0.019457
     24   -0.010016   -0.024193    0.018017
     25    0.004015    0.008726   -0.000397
     26   -0.001741   -0.001861    0.007862
     27   -0.009771   -0.011577   -0.005703
     28    0.003573    0.006265   -0.005932
     29    0.004789    0.001987   -0.004620
     30    0.008858   -0.001064   -0.001455
     31   -0.001403    0.000613    0.002330
     32   -0.005808   -0.001620    0.000816
     33   -0.004160    0.001188   -0.019638
     34   -0.006899    0.006285    0.013256
     35    0.000717   -0.000432   -0.006883
     36    0.002110    0.002628   -0.004683
     37    0.000765   -0.007298    0.000289
     38   -0.000128   -0.002893    0.004065
     39   -0.000411   -0.021741    0.010968
     40    0.002858    0.000302    0.000042
     41    0.014233   -0.004599   -0.004060
     42   -0.001473   -0.003572   -0.006228
     43    0.009129   -0.002755    0.001456
     44    0.003931    0.000151    0.003472
     45    0.001621    0.005391   -0.006087
     46   -0.004269   -0.001973    0.002735
     47   -0.006898   -0.001187   -0.003394
     48   -0.008556   -0.000163   -0.001387
     49   -0.000633   -0.001754    0.011460
     50    0.004854   -0.002902   -0.005057
     51    0.000678    0.003272    0.006218
     52    0.006502    0.006365   -0.000215
     53    0.005708    0.012368    0.002955
     54    0.008627   -0.007839    0.003177
     55    0.004394    0.000132    0.002346
     56   -0.004641    0.009426   -0.005548
     57   -0.004801   -0.024766    0.002851
     58   -0.002703    0.001589    0.007521
     59    0.023718   -0.006559    0.003743
     60   -0.010013   -0.042894   -0.029745
     61    0.016140   -0.000721   -0.001747
     62   -0.004871    0.002439    0.001990
     63    0.009632    0.007144    0.001203
     64   -0.001150    0.001648   -0.003018
     65    0.006658   -0.002268    0.006874
     66   -0.002617    0.003321    0.002230
     67   -0.000803    0.002802    0.003258
     68   -0.000984   -0.001579   -0.001813
     69    0.001316    0.000607    0.003431
     70   -0.010901    0.000580   -0.004134
     71    0.005370   -0.003909    0.013130
     72   -0.012282    0.007114   -0.015100
     73    0.004641   -0.007554    0.004302
     74    0.017455    0.013344    0.004896
     75    0.006200    0.026885    0.020665
     76   -0.010372    0.000470   -0.005601
     77   -0.003368   -0.004484    0.010962
     78    0.012416   -0.004728    0.000719
     79   -0.005789    0.005198   -0.007541
     80    0.005480   -0.004049    0.003455
     81   -0.004935    0.005839   -0.006405
     82    0.001157   -0.011200    0.018491
     83   -0.029013   -0.016935    0.021131
     84   -0.020335    0.020972    0.006071
 
Bonds
 
     1   3      1      7
     2   2      1      3
     3   1      1      2
     4   4      2      5
     5   4      2      6
     6   4      2      4
     7   6      7     19
     8   5      7      8
     9   1      8      9
    10   7      8     11
    11   8      8     20
    12   3      9     28
    13   2      9     10
    14  10     11     21
    15   9     11     12
    16  10     11     22
    17  11     12     14
    18  11     12     13
    19  12     13     23
    20  11     13     15
    21  12     14     24
    22  11     14     16
    23  11     15     17
    24  12     15     25
    25  11     16     17
    26  12     16     26
    27  13     17     18
    28  14     18     27
    29   5     28     29
    30   6     28     32
    31   1     29     30
    32   8     29     33
    33   8     29     34
    34   3     30     35
    35   2     30     31
    36   5     35     36
    37   6     35     39
    38   1     36     37
    39   8     36     40
    40   8     36     41
    41   2     37     38
    42   3     37     42
    43   6     42     53
    44   5     42     43
    45   1     43     44
    46   7     43     46
    47   8     43     54
    48   3     44     62
    49   2     44     45
    50  10     46     56
    51  10     46     55
    52   9     46     47
    53  11     47     48
    54  11     47     49
    55  11     48     50
    56  12     48     57
    57  11     49     51
    58  12     49     58
    59  11     50     52
    60  12     50     59
    61  11     51     52
    62  12     51     60
    63  12     52     61
    64   6     62     70
    65   5     62     63
    66   7     63     66
    67   1     63     64
    68   8     63     71
    69   2     64     65
    70   3     64     79
    71  15     66     67
    72  10     66     73
    73  10     66     72
    74  10     67     75
    75  10     67     74
    76  16     67     68
    77  17     68     69
    78   4     69     76
    79   4     69     78
    80   4     69     77
    81   5     79     80
    82   6     79     81
    83   4     80     84
    84   4     80     83
    85   4     80     82
 
Angles
 
     1   5      2      1      7
     2   4      2      1      3
     3   6      3      1      7
     4   7      4      2      5
     5   7      5      2      6
     6   1      1      2      5
     7   1      1      2      6
     8   1      1      2      4
     9   7      4      2      6
    10   2      1      7      8
    11   3      1      7     19
    12  11      8      7     19
    13   9      7      8     11
    14   8      7      8      9
    15  16     11      8     20
    16  15      9      8     20
    17  14      9      8     11
    18  10      7      8     20
    19   5      8      9     28
    20   4      8      9     10
    21   6     10      9     28
    22  18     12     11     22
    23  23     21     11     22
    24  12      8     11     12
    25  13      8     11     21
    26  18     12     11     21
    27  13      8     11     22
    28  19     13     12     14
    29  17     11     12     14
    30  17     11     12     13
    31  20     15     13     23
    32  20     12     13     23
    33  19     12     13     15
    34  20     12     14     24
    35  20     16     14     24
    36  19     12     14     16
    37  20     13     15     25
    38  20     17     15     25
    39  19     13     15     17
    40  20     14     16     26
    41  19     14     16     17
    42  20     17     16     26
    43  21     15     17     18
    44  19     15     17     16
    45  21     16     17     18
    46  22     17     18     27
    47   2      9     28     29
    48   3      9     28     32
    49  11     29     28     32
    50  15     30     29     34
    51  10     28     29     33
    52  10     28     29     34
    53  15     30     29     33
    54  24     33     29     34
    55   8     28     29     30
    56   6     31     30     35
    57   5     29     30     35
    58   4     29     30     31
    59   2     30     35     36
    60   3     30     35     39
    61  11     36     35     39
    62   8     35     36     37
    63  10     35     36     41
    64  10     35     36     40
    65  24     40     36     41
    66  15     37     36     40
    67  15     37     36     41
    68   6     38     37     42
    69   5     36     37     42
    70   4     36     37     38
    71  11     43     42     53
    72   2     37     42     43
    73   3     37     42     53
    74  10     42     43     54
    75  16     46     43     54
    76  14     44     43     46
    77   9     42     43     46
    78   8     42     43     44
    79  15     44     43     54
    80   5     43     44     62
    81   6     45     44     62
    82   4     43     44     45
    83  13     43     46     55
    84  13     43     46     56
    85  12     43     46     47
    86  23     55     46     56
    87  18     47     46     56
    88  18     47     46     55
    89  17     46     47     49
    90  17     46     47     48
    91  19     48     47     49
    92  20     50     48     57
    93  19     47     48     50
    94  20     47     48     57
    95  20     51     49     58
    96  19     47     49     51
    97  20     47     49     58
    98  20     48     50     59
    99  19     48     50     52
   100  20     52     50     59
   101  20     52     51     60
   102  20     49     51     60
   103  19     49     51     52
   104  20     50     52     61
   105  19     50     52     51
   106  20     51     52     61
   107   2     44     62     63
   108   3     44     62     70
   109  11     63     62     70
   110  16     66     63     71
   111  15     64     63     71
   112  14     64     63     66
   113  10     62     63     71
   114   9     62     63     66
   115   8     62     63     64
   116   4     63     64     65
   117   6     65     64     79
   118   5     63     64     79
   119  23     72     66     73
   120  27     67     66     73
   121  27     67     66     72
   122  25     63     66     67
   123  13     63     66     73
   124  13     63     66     72
   125  29     68     67     75
   126  23     74     67     75
   127  29     68     67     74
   128  26     66     67     68
   129  27     66     67     74
   130  27     66     67     75
   131  28     67     68     69
   132  29     68     69     76
   133  29     68     69     77
   134  29     68     69     78
   135   7     76     69     78
   136   7     76     69     77
   137   7     77     69     78
   138   3     64     79     81
   139   2     64     79     80
   140  11     80     79     81
   141   7     83     80     84
   142  30     79     80     84
   143   7     82     80     83
   144  30     79     80     83
   145  30     79     80     82
   146   7     82     80     84
 
Dihedrals
 
     1   6      3      1      7      8
     2   6      2      1      7     19
     3   4      2      1      7      8
     4   5      2      1      7      8
     5   6      3      1      7     19
     6   3      3      1      2      4
     7   3      3      1      2      6
     8   3      3      1      2      5
     9   3      5      2      1      7
    10   3      4      2      1      7
    11   3      6      2      1      7
    12   3     19      7      8     20
    13   1      1      7      8      9
    14   3      1      7      8     20
    15   2      1      7      8     11
    16   8      9      8     11     22
    17   3      7      8      9     10
    18   7      7      8      9     28
    19   8      7      8     11     21
    20   8      7      8     11     12
    21   3      9      8      7     19
    22   3     11      8      9     28
    23   8      7      8     11     22
    24   3     11      8      7     19
    25  10      9      8     11     12
    26   3     20      8      9     28
    27   8      9      8     11     21
    28   8     20      8     11     22
    29   8     20      8     11     21
    30   4      8      9     28     29
    31   5      8      9     28     29
    32   6     10      9     28     29
    33  11     10      9      8     11
    34   6     10      9     28     32
    35   3     10      9      8     20
    36   6      8      9     28     32
    37   9      8     11     12     13
    38   8     12     11      8     20
    39   9      8     11     12     14
    40  14     14     12     13     15
    41  13     13     12     14     24
    42   3     13     12     11     22
    43  14     13     12     14     16
    44   3     14     12     11     22
    45   3     13     12     11     21
    46  13     11     12     14     24
    47  12     11     12     14     16
    48   3     14     12     11     21
    49  13     11     12     13     23
    50  13     14     12     13     23
    51  12     11     12     13     15
    52  16     23     13     15     25
    53  13     12     13     15     25
    54  14     12     13     15     17
    55  14     12     14     16     17
    56  13     12     14     16     26
    57  16     24     14     16     26
    58  12     13     15     17     18
    59  13     17     15     13     23
    60  14     13     15     17     16
    61  12     14     16     17     18
    62  13     17     16     14     24
    63  14     14     16     17     15
    64  15     16     17     18     27
    65  13     15     17     16     26
    66  13     18     17     15     25
    67  15     15     17     18     27
    68  13     16     17     15     25
    69  13     18     17     16     26
    70   1      9     28     29     30
    71   3     32     28     29     33
    72   3      9     28     29     33
    73   3      9     28     29     34
    74   3     32     28     29     34
    75   3     33     29     30     35
    76   3     30     29     28     32
    77   3     34     29     30     35
    78   7     28     29     30     35
    79   3     28     29     30     31
    80   6     29     30     35     39
    81   4     29     30     35     36
    82   5     29     30     35     36
    83   3     31     30     29     34
    84   3     31     30     29     33
    85   6     31     30     35     39
    86   6     31     30     35     36
    87   1     30     35     36     37
    88   3     39     35     36     41
    89   3     30     35     36     40
    90   3     30     35     36     41
    91   3     39     35     36     40
    92   3     40     36     37     42
    93   3     41     36     37     42
    94   7     35     36     37     42
    95   3     35     36     37     38
    96   3     37     36     35     39
    97   6     38     37     42     53
    98   3     38     37     36     40
    99   6     38     37     42     43
   100   4     36     37     42     43
   101   6     36     37     42     53
   102   5     36     37     42     43
   103   3     38     37     36     41
   104   3     37     42     43     54
   105   1     37     42     43     44
   106   3     53     42     43     54
   107   2     37     42     43     46
   108  10     44     43     46     47
   109   3     44     43     42     53
   110   8     42     43     46     56
   111   8     42     43     46     55
   112   8     42     43     46     47
   113   3     46     43     42     53
   114   8     44     43     46     55
   115   8     54     43     46     56
   116   7     42     43     44     62
   117   3     42     43     44     45
   118   3     46     43     44     62
   119   3     54     43     44     62
   120   8     54     43     46     55
   121   8     44     43     46     56
   122   5     43     44     62     63
   123   6     45     44     62     70
   124   6     43     44     62     70
   125   4     43     44     62     63
   126  11     45     44     43     46
   127   3     45     44     43     54
   128   6     45     44     62     63
   129   9     43     46     47     48
   130   8     47     46     43     54
   131   9     43     46     47     49
   132   3     49     47     46     55
   133  13     46     47     48     57
   134  14     49     47     48     50
   135   3     49     47     46     56
   136  12     46     47     48     50
   137  12     46     47     49     51
   138  14     48     47     49     51
   139  13     46     47     49     58
   140   3     48     47     46     55
   141   3     48     47     46     56
   142  13     48     47     49     58
   143  13     49     47     48     57
   144  14     47     48     50     52
   145  16     57     48     50     59
   146  13     47     48     50     59
   147  16     58     49     51     60
   148  13     47     49     51     60
   149  14     47     49     51     52
   150  13     48     50     52     61
   151  14     48     50     52     51
   152  16     59     50     52     61
   153  13     52     50     48     57
   154  14     49     51     52     50
   155  13     49     51     52     61
   156  13     52     51     49     58
   157  16     60     51     52     61
   158  13     51     52     50     59
   159  13     50     52     51     60
   160   3     70     62     63     71
   161   2     44     62     63     66
   162   1     44     62     63     64
   163   3     44     62     63     71
   164   8     62     63     66     72
   165   8     62     63     66     67
   166   3     71     63     64     79
   167   3     62     63     64     65
   168   3     64     63     62     70
   169   8     62     63     66     73
   170   7     62     63     64     79
   171   8     64     63     66     67
   172   3     66     63     64     79
   173   8     64     63     66     72
   174   3     66     63     62     70
   175   8     71     63     66     73
   176   8     64     63     66     73
   177   8     71     63     66     72
   178   6     63     64     79     81
   179   6     65     64     79     80
   180   3     65     64     63     71
   181   4     63     64     79     80
   182   6     65     64     79     81
   183   5     63     64     79     80
   184  11     65     64     63     66
   185   8     67     66     63     71
   186  17     63     66     67     74
   187  17     72     66     67     75
   188  17     63     66     67     75
   189  17     63     66     67     68
   190  17     73     66     67     74
   191  17     73     66     67     75
   192  17     72     66     67     74
   193  19     66     67     68     69
   194  21     68     67     66     72
   195  18     66     67     68     69
   196  21     68     67     66     73
   197  20     69     68     67     74
   198  20     69     68     67     75
   199  20     67     68     69     77
   200  20     67     68     69     76
   201  20     67     68     69     78
   202   3     81     79     80     83
   203   3     81     79     80     84
   204   3     64     79     80     84
   205   3     81     79     80     82
   206   3     64     79     80     83
   207   3     64     79     80     82
 
Impropers
 
     1   2      7      1      8     19
     2   1      1      2      7      3
     3   1      9      8     28     10
     4   2     28      9     29     32
     5   1     30     29     35     31
     6   2     35     30     36     39
     7   1     37     36     42     38
     8   2     42     37     43     53
     9   1     44     43     62     45
    10   2     62     44     63     70
    11   1     64     63     79     65
    12   2     79     64     80     81
