
     Program PWSCF v.6.0 (svn rev. 13079) starts on 20Aug2020 at 12: 7:26 

     This program is part of the open-source Quantum ESPRESSO suite
     for quantum simulation of materials; please cite
         "P. Giannozzi et al., J. Phys.:Condens. Matter 21 395502 (2009);
          URL http://www.quantum-espresso.org", 
     in publications or presentations arising from this work. More details at
     http://www.quantum-espresso.org/quote

     Parallel version (MPI), running on     2 processors
     R & G space division:  proc/nbgrp/npool/nimage =       2
     Waiting for input...
     Reading input from standard input

     Current dimensions of program PWSCF are:
     Max number of different atomic species (ntypx) = 10
     Max number of k-points (npk) =  40000
     Max angular momentum in pseudopotentials (lmaxx) =  3
               file C.pbe-n-kjpaw_psl.1.0.0.UPF: wavefunction(s)  2S 2P renormalized
               file O.pbe-n-kjpaw_psl.1.0.0.UPF: wavefunction(s)  2S 2P renormalized

     -------------------------------------
     Parameters for Dispersion Correction:
     -------------------------------------
       atom      VdW radius       C_6     

        C          2.744         60.710
        O          2.536         24.284

     Subspace diagonalization in iterative solution of the eigenvalue problem:
     a serial algorithm will be used


     Parallelization info
     --------------------
     sticks:   dense  smooth     PW     G-vecs:    dense   smooth      PW
     Min         763     763    245                15334    15334    2769
     Max         764     764    246                15335    15335    2770
     Sum        1527    1527    491                30669    30669    5539



     bravais-lattice index     =            0
     lattice parameter (alat)  =       7.7648  a.u.
     unit-cell volume          =     317.2651 (a.u.)^3
     number of atoms/cell      =            6
     number of atomic types    =            2
     number of electrons       =        32.00
     number of Kohn-Sham states=           16
     kinetic-energy cutoff     =      80.0000  Ry
     charge density cutoff     =     320.0000  Ry
     convergence threshold     =      1.0E-06
     mixing beta               =       0.2000
     number of iterations used =            8  local-TF  mixing
     Exchange-correlation      =  SLA  PW   PBX  PBC ( 1  4  3  4 0 0)
     nstep                     =        20000


     celldm(1)=   7.764829  celldm(2)=   0.000000  celldm(3)=   0.000000
     celldm(4)=   0.000000  celldm(5)=   0.000000  celldm(6)=   0.000000

     crystal axes: (cart. coord. in units of alat)
               a(1) = (   1.000000   0.000000   0.000000 )  
               a(2) = (   0.076136   0.997097   0.000000 )  
               a(3) = (  -0.538068  -0.498549   0.679656 )  

     reciprocal axes: (cart. coord. in units 2 pi/alat)
               b(1) = (  1.000000 -0.076358  0.735667 )  
               b(2) = ( -0.000000  1.002911  0.735667 )  
               b(3) = (  0.000000  0.000000  1.471333 )  


     PseudoPot. # 1 for  C read from file:
     pp/C.pbe-n-kjpaw_psl.1.0.0.UPF
     MD5 check sum: 5f16ad9a65e90284d1d834d4ab3b0f7d
     Pseudo is Projector augmented-wave + core cor, Zval =  4.0
     Generated using "atomic" code by A. Dal Corso  v.6.3
     Shape of augmentation charge: PSQ
     Using radial grid of 1073 points,  4 beta functions with: 
                l(1) =   0
                l(2) =   0
                l(3) =   1
                l(4) =   1
     Q(r) pseudized with 0 coefficients 


     PseudoPot. # 2 for  O read from file:
     pp/O.pbe-n-kjpaw_psl.1.0.0.UPF
     MD5 check sum: e99d9cef9b487d1ca56f5b95ecd0fd7a
     Pseudo is Projector augmented-wave + core cor, Zval =  6.0
     Generated using "atomic" code by A. Dal Corso  v.6.3
     Shape of augmentation charge: PSQ
     Using radial grid of 1095 points,  4 beta functions with: 
                l(1) =   0
                l(2) =   0
                l(3) =   1
                l(4) =   1
     Q(r) pseudized with 0 coefficients 


     atomic species   valence    mass     pseudopotential
        C              4.00    12.01070      C( 1.00)
        O              6.00    15.99900      O( 1.00)

     No symmetry found



   Cartesian axes

     site n.     atom                  positions (alat units)
         1           C   tau(   1) = (   0.0000000   0.0000000   0.0000000  )
         2           C   tau(   2) = (   0.5000000  -0.0000000   0.3398279  )
         3           O   tau(   3) = (   0.4046539  -0.1669132   0.6220223  )
         4           O   tau(   4) = (   0.4024480   0.9147362   0.0576335  )
         5           O   tau(   5) = (  -0.1736879  -0.0823613   0.2821944  )
         6           O   tau(   6) = (   0.4427219   0.3316356   0.3974613  )

     number of k points=   365

     Number of k-points >= 100: set verbosity='high' to print them.

     Dense  grid:    30669 G-vectors     FFT dimensions: (  45,  45,  45)

     Estimated max dynamical RAM per process >     188.95Mb

     Estimated total allocated dynamical RAM >     377.89Mb

     Check: negative/imaginary core charge=   -0.000009    0.000000

     Initial potential from superposition of free atoms

     starting charge   31.99991, renormalised to   32.00000
     Starting wfc are   24 randomized atomic wfcs
     Checking if some PAW data can be deallocated... 

     total cpu time spent up to now is       16.1 secs

     per-process dynamical memory:   203.0 Mb

     Self-consistent Calculation

     iteration #  1     ecut=    80.00 Ry     beta=0.20
     Davidson diagonalization with overlap
     ethr =  1.00E-02,  avg # of iterations =  3.0

     total cpu time spent up to now is       51.5 secs

     total energy              =    -203.46858152 Ry
     Harris-Foulkes estimate   =    -203.59464388 Ry
     estimated scf accuracy    <       0.82775013 Ry

     iteration #  2     ecut=    80.00 Ry     beta=0.20
     Davidson diagonalization with overlap
     ethr =  2.59E-03,  avg # of iterations =  1.0

     total cpu time spent up to now is       85.9 secs

     total energy              =    -203.11403201 Ry
     Harris-Foulkes estimate   =    -203.48053449 Ry
     estimated scf accuracy    <       0.58040822 Ry

     iteration #  3     ecut=    80.00 Ry     beta=0.20
     Davidson diagonalization with overlap
     ethr =  1.81E-03,  avg # of iterations =  4.0

     total cpu time spent up to now is      155.4 secs

     total energy              =    -203.41300652 Ry
     Harris-Foulkes estimate   =    -203.51946552 Ry
     estimated scf accuracy    <       0.40244370 Ry

     iteration #  4     ecut=    80.00 Ry     beta=0.20
     Davidson diagonalization with overlap
     ethr =  1.26E-03,  avg # of iterations =  1.0

     total cpu time spent up to now is      188.7 secs

     total energy              =    -203.43973477 Ry
     Harris-Foulkes estimate   =    -203.41738771 Ry
     estimated scf accuracy    <       0.24088343 Ry

     iteration #  5     ecut=    80.00 Ry     beta=0.20
     Davidson diagonalization with overlap
     ethr =  7.53E-04,  avg # of iterations =  1.0

     total cpu time spent up to now is      225.6 secs

     total energy              =    -203.31834011 Ry
     Harris-Foulkes estimate   =    -203.44116521 Ry
     estimated scf accuracy    <       0.27662952 Ry

     iteration #  6     ecut=    80.00 Ry     beta=0.20
     Davidson diagonalization with overlap
     ethr =  7.53E-04,  avg # of iterations =  3.7

     total cpu time spent up to now is      267.6 secs

     total energy              =    -203.32695926 Ry
     Harris-Foulkes estimate   =    -203.35212710 Ry
     estimated scf accuracy    <       0.03399438 Ry

     iteration #  7     ecut=    80.00 Ry     beta=0.20
     Davidson diagonalization with overlap
     ethr =  1.06E-04,  avg # of iterations =  4.0

     total cpu time spent up to now is      346.6 secs

     total energy              =    -203.43702035 Ry
     Harris-Foulkes estimate   =    -203.46438909 Ry
     estimated scf accuracy    <       0.21674577 Ry

     iteration #  8     ecut=    80.00 Ry     beta=0.20
     Davidson diagonalization with overlap
     ethr =  1.06E-04,  avg # of iterations =  1.0

     total cpu time spent up to now is      382.5 secs

     total energy              =    -203.38010546 Ry
     Harris-Foulkes estimate   =    -203.43739255 Ry
     estimated scf accuracy    <       0.17124574 Ry

     iteration #  9     ecut=    80.00 Ry     beta=0.20
     Davidson diagonalization with overlap
     ethr =  1.06E-04,  avg # of iterations =  4.0

     total cpu time spent up to now is      449.1 secs

     total energy              =    -203.39444293 Ry
     Harris-Foulkes estimate   =    -203.40116225 Ry
     estimated scf accuracy    <       0.01244630 Ry

     iteration # 10     ecut=    80.00 Ry     beta=0.20
     Davidson diagonalization with overlap
     ethr =  3.89E-05,  avg # of iterations =  1.2

     total cpu time spent up to now is      486.6 secs

     total energy              =    -203.39471422 Ry
     Harris-Foulkes estimate   =    -203.39508398 Ry
     estimated scf accuracy    <       0.00237646 Ry

     iteration # 11     ecut=    80.00 Ry     beta=0.20
     Davidson diagonalization with overlap
     ethr =  7.43E-06,  avg # of iterations =  4.0

     total cpu time spent up to now is      565.4 secs

     total energy              =    -203.39805495 Ry
     Harris-Foulkes estimate   =    -203.39783017 Ry
     estimated scf accuracy    <       0.00091138 Ry

     iteration # 12     ecut=    80.00 Ry     beta=0.20
     Davidson diagonalization with overlap
     ethr =  2.85E-06,  avg # of iterations =  1.0

     total cpu time spent up to now is      601.4 secs

     total energy              =    -203.39767620 Ry
     Harris-Foulkes estimate   =    -203.39806222 Ry
     estimated scf accuracy    <       0.00127005 Ry

     iteration # 13     ecut=    80.00 Ry     beta=0.20
     Davidson diagonalization with overlap
     ethr =  2.85E-06,  avg # of iterations =  1.0

     total cpu time spent up to now is      637.8 secs

     total energy              =    -203.39758904 Ry
     Harris-Foulkes estimate   =    -203.39768471 Ry
     estimated scf accuracy    <       0.00070146 Ry

     iteration # 14     ecut=    80.00 Ry     beta=0.20
     Davidson diagonalization with overlap
     ethr =  2.19E-06,  avg # of iterations =  1.0

     total cpu time spent up to now is      674.1 secs

     total energy              =    -203.39760575 Ry
     Harris-Foulkes estimate   =    -203.39760991 Ry
     estimated scf accuracy    <       0.00038763 Ry

     iteration # 15     ecut=    80.00 Ry     beta=0.20
     Davidson diagonalization with overlap
     ethr =  1.21E-06,  avg # of iterations =  1.0

     total cpu time spent up to now is      711.1 secs

     total energy              =    -203.39755368 Ry
     Harris-Foulkes estimate   =    -203.39761160 Ry
     estimated scf accuracy    <       0.00038832 Ry

     iteration # 16     ecut=    80.00 Ry     beta=0.20
     Davidson diagonalization with overlap
     ethr =  1.21E-06,  avg # of iterations =  1.0

     total cpu time spent up to now is      747.0 secs

     total energy              =    -203.39748406 Ry
     Harris-Foulkes estimate   =    -203.39755833 Ry
     estimated scf accuracy    <       0.00027352 Ry

     iteration # 17     ecut=    80.00 Ry     beta=0.20
     Davidson diagonalization with overlap
     ethr =  8.55E-07,  avg # of iterations =  3.0

     total cpu time spent up to now is      797.3 secs

     total energy              =    -203.39753596 Ry
     Harris-Foulkes estimate   =    -203.39754327 Ry
     estimated scf accuracy    <       0.00001124 Ry

     iteration # 18     ecut=    80.00 Ry     beta=0.20
     Davidson diagonalization with overlap
     ethr =  3.51E-08,  avg # of iterations =  4.0

     total cpu time spent up to now is      871.5 secs

     total energy              =    -203.39754917 Ry
     Harris-Foulkes estimate   =    -203.39754629 Ry
     estimated scf accuracy    <       0.00000853 Ry

     iteration # 19     ecut=    80.00 Ry     beta=0.20
     Davidson diagonalization with overlap
     ethr =  2.67E-08,  avg # of iterations =  1.0

     total cpu time spent up to now is      907.3 secs

     total energy              =    -203.39754680 Ry
     Harris-Foulkes estimate   =    -203.39754926 Ry
     estimated scf accuracy    <       0.00001339 Ry

     iteration # 20     ecut=    80.00 Ry     beta=0.20
     Davidson diagonalization with overlap
     ethr =  2.67E-08,  avg # of iterations =  1.0

     total cpu time spent up to now is      944.8 secs

     total energy              =    -203.39754241 Ry
     Harris-Foulkes estimate   =    -203.39754687 Ry
     estimated scf accuracy    <       0.00000979 Ry

     iteration # 21     ecut=    80.00 Ry     beta=0.20
     Davidson diagonalization with overlap
     ethr =  2.67E-08,  avg # of iterations =  1.0

     total cpu time spent up to now is      981.3 secs

     total energy              =    -203.39754313 Ry
     Harris-Foulkes estimate   =    -203.39754270 Ry
     estimated scf accuracy    <       0.00000314 Ry

     iteration # 22     ecut=    80.00 Ry     beta=0.20
     Davidson diagonalization with overlap
     ethr =  9.80E-09,  avg # of iterations =  1.3

     total cpu time spent up to now is     1018.0 secs

     total energy              =    -203.39754181 Ry
     Harris-Foulkes estimate   =    -203.39754327 Ry
     estimated scf accuracy    <       0.00000341 Ry

     iteration # 23     ecut=    80.00 Ry     beta=0.20
     Davidson diagonalization with overlap
     ethr =  9.80E-09,  avg # of iterations =  4.6

     total cpu time spent up to now is     1083.4 secs

     total energy              =    -203.39754456 Ry
     Harris-Foulkes estimate   =    -203.39754383 Ry
     estimated scf accuracy    <       0.00000103 Ry

     iteration # 24     ecut=    80.00 Ry     beta=0.20
     Davidson diagonalization with overlap
     ethr =  3.22E-09,  avg # of iterations =  4.2

     total cpu time spent up to now is     1136.6 secs

     total energy              =    -203.39754377 Ry
     Harris-Foulkes estimate   =    -203.39754488 Ry
     estimated scf accuracy    <       0.00000360 Ry

     iteration # 25     ecut=    80.00 Ry     beta=0.20
     Davidson diagonalization with overlap
     ethr =  3.22E-09,  avg # of iterations =  1.0

     total cpu time spent up to now is     1173.5 secs

     total energy              =    -203.39754273 Ry
     Harris-Foulkes estimate   =    -203.39754382 Ry
     estimated scf accuracy    <       0.00000197 Ry

     iteration # 26     ecut=    80.00 Ry     beta=0.20
     Davidson diagonalization with overlap
     ethr =  3.22E-09,  avg # of iterations =  4.0

     total cpu time spent up to now is     1246.3 secs

     End of self-consistent calculation

     Number of k-points >= 100: set verbosity='high' to print the bands.

     highest occupied level (ev):     4.9681

!    total energy              =    -203.39754333 Ry
     Harris-Foulkes estimate   =    -203.39754366 Ry
     estimated scf accuracy    <       0.00000038 Ry

     total all-electron energy =      -754.313299 Ry

     The total energy is the sum of the following terms:

     one-electron contribution =     -47.24808329 Ry
     hartree contribution      =      43.36021542 Ry
     xc contribution           =     -39.10384423 Ry
     ewald contribution        =    -109.69743659 Ry
     Dispersion Correction     =      -0.04460357 Ry
     one-center paw contrib.   =     -50.66379106 Ry

     convergence has been achieved in  26 iterations

     Forces acting on atoms (Ry/au):

     atom    1 type  1   force =    -0.00000016    0.00000118   -0.00000183
     atom    2 type  1   force =    -0.00000147    0.00000059    0.00000143
     atom    3 type  2   force =    -0.00100543    0.00108633    0.00147843
     atom    4 type  2   force =     0.00100738   -0.00108610   -0.00147983
     atom    5 type  2   force =     0.00100570   -0.00108661    0.00148108
     atom    6 type  2   force =    -0.00100602    0.00108461   -0.00147927

     Total force =     0.004186     Total SCF correction =     0.001302
     SCF correction compared to forces is large: reduce conv_thr to get better values


     entering subroutine stress ...

          total   stress  (Ry/bohr**3)                   (kbar)     P=  -11.36
  -0.00008994  -0.00003083  -0.00000001        -13.23     -4.54     -0.00
  -0.00003083  -0.00008511   0.00000002         -4.54    -12.52      0.00
  -0.00000001   0.00000002  -0.00005658         -0.00      0.00     -8.32


     BFGS Geometry Optimization

     number of scf cycles    =   1
     number of bfgs steps    =   0

     energy   new            =    -203.3975433271 Ry

     new trust radius        =       0.0020942203 bohr
     new conv_thr            =       0.0000010000 Ry


ATOMIC_POSITIONS (angstrom)
C       -0.000000085   0.000000623  -0.000000969
C        2.054484486   0.000000258   1.396343573
O        1.662178870  -0.685266408   2.556653889
O        1.654180208   3.758049358   0.236031065
O       -0.713146339  -0.338994981   1.160312391
O        1.818598766   1.363254909   1.632374115


     NEW-OLD atomic charge density approx. for the potential

     Check: negative/imaginary core charge=   -0.000009    0.000000

     total cpu time spent up to now is     1259.1 secs

     per-process dynamical memory:   216.1 Mb

     Self-consistent Calculation

     iteration #  1     ecut=    80.00 Ry     beta=0.20
     Davidson diagonalization with overlap
     ethr =  1.00E-06,  avg # of iterations =  2.0

     Threshold (ethr) on eigenvalues was too large:
     Diagonalizing with lowered threshold

     Davidson diagonalization with overlap
     ethr =  2.33E-08,  avg # of iterations =  3.4

     total cpu time spent up to now is     1334.5 secs

     total energy              =    -203.39755802 Ry
     Harris-Foulkes estimate   =    -203.39718795 Ry
     estimated scf accuracy    <       0.00000735 Ry

     iteration #  2     ecut=    80.00 Ry     beta=0.20
     Davidson diagonalization with overlap
     ethr =  2.30E-08,  avg # of iterations =  1.0

     total cpu time spent up to now is     1368.7 secs

     total energy              =    -203.39755465 Ry
     Harris-Foulkes estimate   =    -203.39755806 Ry
     estimated scf accuracy    <       0.00000520 Ry

     iteration #  3     ecut=    80.00 Ry     beta=0.20
     Davidson diagonalization with overlap
     ethr =  1.62E-08,  avg # of iterations =  4.0

     total cpu time spent up to now is     1440.8 secs

     total energy              =    -203.39755775 Ry
     Harris-Foulkes estimate   =    -203.39755844 Ry
     estimated scf accuracy    <       0.00000446 Ry

     iteration #  4     ecut=    80.00 Ry     beta=0.20
     Davidson diagonalization with overlap
     ethr =  1.39E-08,  avg # of iterations =  1.0

     total cpu time spent up to now is     1479.5 secs

     total energy              =    -203.39755741 Ry
     Harris-Foulkes estimate   =    -203.39755777 Ry
     estimated scf accuracy    <       0.00000331 Ry

     iteration #  5     ecut=    80.00 Ry     beta=0.20
     Davidson diagonalization with overlap
     ethr =  1.03E-08,  avg # of iterations =  1.0

     total cpu time spent up to now is     1516.0 secs

     total energy              =    -203.39755746 Ry
     Harris-Foulkes estimate   =    -203.39755749 Ry
     estimated scf accuracy    <       0.00000211 Ry

     iteration #  6     ecut=    80.00 Ry     beta=0.20
     Davidson diagonalization with overlap
     ethr =  6.61E-09,  avg # of iterations =  1.0

     total cpu time spent up to now is     1553.8 secs

     total energy              =    -203.39755596 Ry
     Harris-Foulkes estimate   =    -203.39755747 Ry
     estimated scf accuracy    <       0.00000205 Ry

     iteration #  7     ecut=    80.00 Ry     beta=0.20
     Davidson diagonalization with overlap
     ethr =  6.40E-09,  avg # of iterations =  4.0

     total cpu time spent up to now is     1628.5 secs

     total energy              =    -203.39755734 Ry
     Harris-Foulkes estimate   =    -203.39755764 Ry
     estimated scf accuracy    <       0.00000191 Ry

     iteration #  8     ecut=    80.00 Ry     beta=0.20
     Davidson diagonalization with overlap
     ethr =  5.98E-09,  avg # of iterations =  1.1

     total cpu time spent up to now is     1667.0 secs

     total energy              =    -203.39755730 Ry
     Harris-Foulkes estimate   =    -203.39755735 Ry
     estimated scf accuracy    <       0.00000147 Ry

     iteration #  9     ecut=    80.00 Ry     beta=0.20
     Davidson diagonalization with overlap
     ethr =  4.59E-09,  avg # of iterations =  1.0

     total cpu time spent up to now is     1703.7 secs

     total energy              =    -203.39755699 Ry
     Harris-Foulkes estimate   =    -203.39755731 Ry
     estimated scf accuracy    <       0.00000141 Ry

     iteration # 10     ecut=    80.00 Ry     beta=0.20
     Davidson diagonalization with overlap
     ethr =  4.41E-09,  avg # of iterations =  1.0

     total cpu time spent up to now is     1741.4 secs

     End of self-consistent calculation

     Number of k-points >= 100: set verbosity='high' to print the bands.

     highest occupied level (ev):     4.9698

!    total energy              =    -203.39755636 Ry
     Harris-Foulkes estimate   =    -203.39755702 Ry
     estimated scf accuracy    <       0.00000082 Ry

     total all-electron energy =      -754.313312 Ry

     The total energy is the sum of the following terms:

     one-electron contribution =     -47.13878536 Ry
     hartree contribution      =      43.30476710 Ry
     xc contribution           =     -39.09845276 Ry
     ewald contribution        =    -109.75659136 Ry
     Dispersion Correction     =      -0.04460953 Ry
     one-center paw contrib.   =     -50.66388446 Ry

     convergence has been achieved in  10 iterations

     Forces acting on atoms (Ry/au):

     atom    1 type  1   force =     0.00000101   -0.00000277    0.00000277
     atom    2 type  1   force =     0.00000337   -0.00000154   -0.00000211
     atom    3 type  2   force =    -0.00036909    0.00039953    0.00054451
     atom    4 type  2   force =     0.00036671   -0.00039836   -0.00054109
     atom    5 type  2   force =     0.00036615   -0.00039598    0.00053948
     atom    6 type  2   force =    -0.00036815    0.00039912   -0.00054356

     Total force =     0.001533     Total SCF correction =     0.000466
     SCF correction compared to forces is large: reduce conv_thr to get better values


     entering subroutine stress ...

          total   stress  (Ry/bohr**3)                   (kbar)     P=  -17.76
  -0.00013189  -0.00002739  -0.00000001        -19.40     -4.03     -0.00
  -0.00002739  -0.00012783  -0.00000000         -4.03    -18.80     -0.00
  -0.00000001  -0.00000000  -0.00010238         -0.00     -0.00    -15.06


     number of scf cycles    =   2
     number of bfgs steps    =   1

     energy   old            =    -203.3975433271 Ry
     energy   new            =    -203.3975563636 Ry

     CASE: energy  _new < energy  _old

     new trust radius        =       0.0012144248 bohr
     new conv_thr            =       0.0000001304 Ry


ATOMIC_POSITIONS (angstrom)
C        0.000000761  -0.000001691   0.000001340
C        2.054487299  -0.000001027   1.396341808
O        1.661870679  -0.684932803   2.557108555
O        1.654486408   3.757716729   0.235579260
O       -0.712840608  -0.339325620   1.160762857
O        1.818291366   1.363588172   1.631920245


     NEW-OLD atomic charge density approx. for the potential

     Check: negative/imaginary core charge=   -0.000009    0.000000

     total cpu time spent up to now is     1754.1 secs

     per-process dynamical memory:   219.7 Mb

     Self-consistent Calculation

     iteration #  1     ecut=    80.00 Ry     beta=0.20
     Davidson diagonalization with overlap
     ethr =  1.00E-06,  avg # of iterations =  2.7

     Threshold (ethr) on eigenvalues was too large:
     Diagonalizing with lowered threshold

     Davidson diagonalization with overlap
     ethr =  2.19E-09,  avg # of iterations =  4.0

     total cpu time spent up to now is     1838.3 secs

     total energy              =    -203.39756160 Ry
     Harris-Foulkes estimate   =    -203.39734342 Ry
     estimated scf accuracy    <       0.00000247 Ry

     iteration #  2     ecut=    80.00 Ry     beta=0.20
     Davidson diagonalization with overlap
     ethr =  7.73E-09,  avg # of iterations =  1.0

     total cpu time spent up to now is     1876.8 secs

     total energy              =    -203.39756026 Ry
     Harris-Foulkes estimate   =    -203.39756161 Ry
     estimated scf accuracy    <       0.00000190 Ry

     iteration #  3     ecut=    80.00 Ry     beta=0.20
     Davidson diagonalization with overlap
     ethr =  5.95E-09,  avg # of iterations =  4.0

     total cpu time spent up to now is     1951.2 secs

     total energy              =    -203.39756133 Ry
     Harris-Foulkes estimate   =    -203.39756161 Ry
     estimated scf accuracy    <       0.00000174 Ry

     iteration #  4     ecut=    80.00 Ry     beta=0.20
     Davidson diagonalization with overlap
     ethr =  5.43E-09,  avg # of iterations =  1.0

     total cpu time spent up to now is     1988.6 secs

     total energy              =    -203.39756041 Ry
     Harris-Foulkes estimate   =    -203.39756134 Ry
     estimated scf accuracy    <       0.00000126 Ry

     iteration #  5     ecut=    80.00 Ry     beta=0.20
     Davidson diagonalization with overlap
     ethr =  3.93E-09,  avg # of iterations =  4.0

     total cpu time spent up to now is     2075.5 secs

     total energy              =    -203.39756141 Ry
     Harris-Foulkes estimate   =    -203.39756165 Ry
     estimated scf accuracy    <       0.00000169 Ry

     iteration #  6     ecut=    80.00 Ry     beta=0.20
     Davidson diagonalization with overlap
     ethr =  3.93E-09,  avg # of iterations =  1.0

     total cpu time spent up to now is     2113.3 secs

     total energy              =    -203.39756099 Ry
     Harris-Foulkes estimate   =    -203.39756142 Ry
     estimated scf accuracy    <       0.00000132 Ry

     iteration #  7     ecut=    80.00 Ry     beta=0.20
     Davidson diagonalization with overlap
     ethr =  3.93E-09,  avg # of iterations =  1.0

     total cpu time spent up to now is     2152.0 secs

     total energy              =    -203.39756090 Ry
     Harris-Foulkes estimate   =    -203.39756102 Ry
     estimated scf accuracy    <       0.00000058 Ry

     iteration #  8     ecut=    80.00 Ry     beta=0.20
     Davidson diagonalization with overlap
     ethr =  1.80E-09,  avg # of iterations =  3.2

     total cpu time spent up to now is     2195.9 secs

     total energy              =    -203.39756087 Ry
     Harris-Foulkes estimate   =    -203.39756096 Ry
     estimated scf accuracy    <       0.00000031 Ry

     iteration #  9     ecut=    80.00 Ry     beta=0.20
     Davidson diagonalization with overlap
     ethr =  9.68E-10,  avg # of iterations =  4.1

     total cpu time spent up to now is     2270.5 secs

     End of self-consistent calculation

     Number of k-points >= 100: set verbosity='high' to print the bands.

     highest occupied level (ev):     4.9687

!    total energy              =    -203.39756109 Ry
     Harris-Foulkes estimate   =    -203.39756114 Ry
     estimated scf accuracy    <       0.00000007 Ry

     total all-electron energy =      -754.313316 Ry

     The total energy is the sum of the following terms:

     one-electron contribution =     -47.07992089 Ry
     hartree contribution      =      43.27868087 Ry
     xc contribution           =     -39.09699246 Ry
     ewald contribution        =    -109.79076269 Ry
     Dispersion Correction     =      -0.04461297 Ry
     one-center paw contrib.   =     -50.66395295 Ry

     convergence has been achieved in   9 iterations

     Forces acting on atoms (Ry/au):

     atom    1 type  1   force =    -0.00000074    0.00000265   -0.00000256
     atom    2 type  1   force =    -0.00000299    0.00000128    0.00000195
     atom    3 type  2   force =    -0.00025549    0.00027584    0.00037635
     atom    4 type  2   force =     0.00025715   -0.00027752   -0.00037676
     atom    5 type  2   force =     0.00025792   -0.00027818    0.00037822
     atom    6 type  2   force =    -0.00025584    0.00027594   -0.00037721

     Total force =     0.001067     Total SCF correction =     0.000298
     SCF correction compared to forces is large: reduce conv_thr to get better values


     entering subroutine stress ...

          total   stress  (Ry/bohr**3)                   (kbar)     P=  -16.47
  -0.00012200  -0.00002456  -0.00000000        -17.95     -3.61     -0.00
  -0.00002456  -0.00011834  -0.00000000         -3.61    -17.41     -0.00
  -0.00000000  -0.00000000  -0.00009554         -0.00     -0.00    -14.05


     number of scf cycles    =   3
     number of bfgs steps    =   2

     energy   old            =    -203.3975563636 Ry
     energy   new            =    -203.3975610873 Ry

     CASE: energy  _new < energy  _old

     new trust radius        =       0.0013358672 bohr
     new conv_thr            =       0.0000000472 Ry


ATOMIC_POSITIONS (angstrom)
C        0.000000482  -0.000000406   0.000000124
C        2.054485929  -0.000000475   1.396342730
O        1.661531742  -0.684566526   2.557608103
O        1.654825930   3.757349431   0.235080530
O       -0.712500632  -0.339692663   1.161262275
O        1.817952456   1.363954398   1.631420302


     NEW-OLD atomic charge density approx. for the potential

     Check: negative/imaginary core charge=   -0.000009    0.000000

     total cpu time spent up to now is     2283.2 secs

     per-process dynamical memory:   219.7 Mb

     Self-consistent Calculation

     iteration #  1     ecut=    80.00 Ry     beta=0.20
     Davidson diagonalization with overlap
     ethr =  1.00E-06,  avg # of iterations =  2.0

     Threshold (ethr) on eigenvalues was too large:
     Diagonalizing with lowered threshold

     Davidson diagonalization with overlap
     ethr =  4.76E-09,  avg # of iterations =  4.0

     total cpu time spent up to now is     2362.0 secs

     total energy              =    -203.39756267 Ry
     Harris-Foulkes estimate   =    -203.39732209 Ry
     estimated scf accuracy    <       0.00000129 Ry

     iteration #  2     ecut=    80.00 Ry     beta=0.20
     Davidson diagonalization with overlap
     ethr =  4.03E-09,  avg # of iterations =  1.0

     total cpu time spent up to now is     2400.6 secs

     total energy              =    -203.39756215 Ry
     Harris-Foulkes estimate   =    -203.39756267 Ry
     estimated scf accuracy    <       0.00000094 Ry

     iteration #  3     ecut=    80.00 Ry     beta=0.20
     Davidson diagonalization with overlap
     ethr =  2.95E-09,  avg # of iterations =  4.1

     total cpu time spent up to now is     2463.0 secs

     total energy              =    -203.39756242 Ry
     Harris-Foulkes estimate   =    -203.39756244 Ry
     estimated scf accuracy    <       0.00000019 Ry

     iteration #  4     ecut=    80.00 Ry     beta=0.20
     Davidson diagonalization with overlap
     ethr =  5.92E-10,  avg # of iterations =  2.2

     total cpu time spent up to now is     2503.0 secs

     total energy              =    -203.39756235 Ry
     Harris-Foulkes estimate   =    -203.39756243 Ry
     estimated scf accuracy    <       0.00000013 Ry

     iteration #  5     ecut=    80.00 Ry     beta=0.20
     Davidson diagonalization with overlap
     ethr =  4.01E-10,  avg # of iterations =  4.8

     total cpu time spent up to now is     2571.9 secs

     End of self-consistent calculation

     Number of k-points >= 100: set verbosity='high' to print the bands.

     highest occupied level (ev):     4.9688

!    total energy              =    -203.39756239 Ry
     Harris-Foulkes estimate   =    -203.39756241 Ry
     estimated scf accuracy    <       0.00000004 Ry

     total all-electron energy =      -754.313318 Ry

     The total energy is the sum of the following terms:

     one-electron contribution =     -47.01239793 Ry
     hartree contribution      =      43.24637776 Ry
     xc contribution           =     -39.09444463 Ry
     ewald contribution        =    -109.82846462 Ry
     Dispersion Correction     =      -0.04461676 Ry
     one-center paw contrib.   =     -50.66401621 Ry

     convergence has been achieved in   5 iterations

     Forces acting on atoms (Ry/au):

     atom    1 type  1   force =    -0.00000128    0.00000187   -0.00000142
     atom    2 type  1   force =    -0.00000205    0.00000162    0.00000090
     atom    3 type  2   force =     0.00004725   -0.00005131   -0.00007065
     atom    4 type  2   force =    -0.00004577    0.00004984    0.00006723
     atom    5 type  2   force =    -0.00004474    0.00004837   -0.00006538
     atom    6 type  2   force =     0.00004658   -0.00005040    0.00006932

     Total force =     0.000193     Total SCF correction =     0.000087
     SCF correction compared to forces is large: reduce conv_thr to get better values


     entering subroutine stress ...

          total   stress  (Ry/bohr**3)                   (kbar)     P=  -17.78
  -0.00012990  -0.00002188   0.00000001        -19.11     -3.22      0.00
  -0.00002188  -0.00012653  -0.00000000         -3.22    -18.61     -0.00
   0.00000001  -0.00000000  -0.00010626          0.00     -0.00    -15.63


     number of scf cycles    =   4
     number of bfgs steps    =   3

     energy   old            =    -203.3975610873 Ry
     energy   new            =    -203.3975623877 Ry

     CASE: energy  _new < energy  _old

     new trust radius        =       0.0002067196 bohr
     new conv_thr            =       0.0000000130 Ry


ATOMIC_POSITIONS (angstrom)
C       -0.000000108   0.000000451  -0.000000535
C        2.054484979   0.000000270   1.396343149
O        1.661584059  -0.684623195   2.557530528
O        1.654774322   3.757405461   0.235156415
O       -0.712551785  -0.339637383   1.161187234
O        1.818004439   1.363898155   1.631497275


     NEW-OLD atomic charge density approx. for the potential

     Check: negative/imaginary core charge=   -0.000009    0.000000

     total cpu time spent up to now is     2584.6 secs

     per-process dynamical memory:   219.7 Mb

     Self-consistent Calculation

     iteration #  1     ecut=    80.00 Ry     beta=0.20
     Davidson diagonalization with overlap
     ethr =  1.00E-06,  avg # of iterations =  2.0

     Threshold (ethr) on eigenvalues was too large:
     Diagonalizing with lowered threshold

     Davidson diagonalization with overlap
     ethr =  6.15E-10,  avg # of iterations =  2.1

     total cpu time spent up to now is     2648.2 secs

     total energy              =    -203.39756245 Ry
     Harris-Foulkes estimate   =    -203.39760036 Ry
     estimated scf accuracy    <       0.00000020 Ry

     iteration #  2     ecut=    80.00 Ry     beta=0.20
     Davidson diagonalization with overlap
     ethr =  6.13E-10,  avg # of iterations =  1.0

     total cpu time spent up to now is     2684.7 secs

     total energy              =    -203.39756236 Ry
     Harris-Foulkes estimate   =    -203.39756245 Ry
     estimated scf accuracy    <       0.00000014 Ry

     iteration #  3     ecut=    80.00 Ry     beta=0.20
     Davidson diagonalization with overlap
     ethr =  4.30E-10,  avg # of iterations =  4.0

     total cpu time spent up to now is     2763.2 secs

     total energy              =    -203.39756243 Ry
     Harris-Foulkes estimate   =    -203.39756246 Ry
     estimated scf accuracy    <       0.00000011 Ry

     iteration #  4     ecut=    80.00 Ry     beta=0.20
     Davidson diagonalization with overlap
     ethr =  3.42E-10,  avg # of iterations =  1.0

     total cpu time spent up to now is     2800.7 secs

     total energy              =    -203.39756245 Ry
     Harris-Foulkes estimate   =    -203.39756243 Ry
     estimated scf accuracy    <       0.00000006 Ry

     iteration #  5     ecut=    80.00 Ry     beta=0.20
     Davidson diagonalization with overlap
     ethr =  1.95E-10,  avg # of iterations =  1.0

     total cpu time spent up to now is     2837.7 secs

     total energy              =    -203.39756239 Ry
     Harris-Foulkes estimate   =    -203.39756245 Ry
     estimated scf accuracy    <       0.00000009 Ry

     iteration #  6     ecut=    80.00 Ry     beta=0.20
     Davidson diagonalization with overlap
     ethr =  1.95E-10,  avg # of iterations =  4.0

     total cpu time spent up to now is     2912.2 secs

     total energy              =    -203.39756245 Ry
     Harris-Foulkes estimate   =    -203.39756244 Ry
     estimated scf accuracy    <       0.00000005 Ry

     iteration #  7     ecut=    80.00 Ry     beta=0.20
     Davidson diagonalization with overlap
     ethr =  1.57E-10,  avg # of iterations =  1.2

     total cpu time spent up to now is     2952.0 secs

     total energy              =    -203.39756241 Ry
     Harris-Foulkes estimate   =    -203.39756245 Ry
     estimated scf accuracy    <       0.00000006 Ry

     iteration #  8     ecut=    80.00 Ry     beta=0.20
     Davidson diagonalization with overlap
     ethr =  1.57E-10,  avg # of iterations =  5.0

     total cpu time spent up to now is     3009.2 secs

     End of self-consistent calculation

     Number of k-points >= 100: set verbosity='high' to print the bands.

     highest occupied level (ev):     4.9684

!    total energy              =    -203.39756242 Ry
     Harris-Foulkes estimate   =    -203.39756242 Ry
     estimated scf accuracy    <          6.1E-10 Ry

     total all-electron energy =      -754.313318 Ry

     The total energy is the sum of the following terms:

     one-electron contribution =     -47.02336952 Ry
     hartree contribution      =      43.25220956 Ry
     xc contribution           =     -39.09506265 Ry
     ewald contribution        =    -109.82270393 Ry
     Dispersion Correction     =      -0.04461618 Ry
     one-center paw contrib.   =     -50.66401971 Ry

     convergence has been achieved in   8 iterations

     Forces acting on atoms (Ry/au):

     atom    1 type  1   force =     0.00000025   -0.00000061    0.00000066
     atom    2 type  1   force =     0.00000060   -0.00000036   -0.00000042
     atom    3 type  2   force =    -0.00000916    0.00000902    0.00001244
     atom    4 type  2   force =     0.00000861   -0.00000850   -0.00001270
     atom    5 type  2   force =     0.00000884   -0.00000886    0.00001269
     atom    6 type  2   force =    -0.00000914    0.00000932   -0.00001266

     Total force =     0.000036     Total SCF correction =     0.000004
     SCF correction compared to forces is large: reduce conv_thr to get better values


     entering subroutine stress ...

          total   stress  (Ry/bohr**3)                   (kbar)     P=  -16.85
  -0.00012368  -0.00002219   0.00000000        -18.19     -3.26      0.00
  -0.00002219  -0.00012029  -0.00000000         -3.26    -17.70     -0.00
   0.00000000  -0.00000000  -0.00009972          0.00     -0.00    -14.67


     number of scf cycles    =   5
     number of bfgs steps    =   4

     energy   old            =    -203.3975623877 Ry
     energy   new            =    -203.3975624228 Ry

     CASE: energy  _new < energy  _old

     small trust_radius: resetting bfgs history

     new trust radius        =       0.0000181868 bohr
     new conv_thr            =       0.0000000100 Ry


ATOMIC_POSITIONS (angstrom)
C        0.000000023   0.000000126  -0.000000188
C        2.054485294   0.000000079   1.396342928
O        1.661579214  -0.684618422   2.557537109
O        1.654778876   3.757400962   0.235149694
O       -0.712547105  -0.339642074   1.161193949
O        1.817999604   1.363903089   1.631490573


     NEW-OLD atomic charge density approx. for the potential

     Check: negative/imaginary core charge=   -0.000009    0.000000

     total cpu time spent up to now is     3022.0 secs

     per-process dynamical memory:   219.7 Mb

     Self-consistent Calculation

     iteration #  1     ecut=    80.00 Ry     beta=0.20
     Davidson diagonalization with overlap
     ethr =  1.00E-06,  avg # of iterations =  2.0

     Threshold (ethr) on eigenvalues was too large:
     Diagonalizing with lowered threshold

     Davidson diagonalization with overlap
     ethr =  1.43E-12,  avg # of iterations =  5.0

     total cpu time spent up to now is     3103.0 secs

     End of self-consistent calculation

     Number of k-points >= 100: set verbosity='high' to print the bands.

     highest occupied level (ev):     4.9683

!    total energy              =    -203.39756243 Ry
     Harris-Foulkes estimate   =    -203.39755913 Ry
     estimated scf accuracy    <          3.6E-10 Ry

     total all-electron energy =      -754.313318 Ry

     The total energy is the sum of the following terms:

     one-electron contribution =     -47.02238812 Ry
     hartree contribution      =      43.25167246 Ry
     xc contribution           =     -39.09500301 Ry
     ewald contribution        =    -109.82320801 Ry
     Dispersion Correction     =      -0.04461623 Ry
     one-center paw contrib.   =     -50.66401951 Ry

     convergence has been achieved in   1 iterations

     Forces acting on atoms (Ry/au):

     atom    1 type  1   force =     0.00000007   -0.00000016    0.00000040
     atom    2 type  1   force =     0.00000021   -0.00000016   -0.00000032
     atom    3 type  2   force =    -0.00000390    0.00000383    0.00000551
     atom    4 type  2   force =     0.00000389   -0.00000368   -0.00000513
     atom    5 type  2   force =     0.00000353   -0.00000359    0.00000498
     atom    6 type  2   force =    -0.00000379    0.00000377   -0.00000544

     Total force =     0.000015     Total SCF correction =     0.000023
     SCF correction compared to forces is large: reduce conv_thr to get better values


     entering subroutine stress ...

          total   stress  (Ry/bohr**3)                   (kbar)     P=  -16.90
  -0.00012395  -0.00002215  -0.00000000        -18.23     -3.26     -0.00
  -0.00002215  -0.00012060  -0.00000000         -3.26    -17.74     -0.00
  -0.00000000  -0.00000000  -0.00010005         -0.00     -0.00    -14.72


     bfgs converged in   6 scf cycles and   5 bfgs steps
     (criteria: energy <  1.0E-06, force <  1.0E-05)

     End of BFGS Geometry Optimization

     Final energy   =    -203.3975624263 Ry
Begin final coordinates

ATOMIC_POSITIONS (angstrom)
C        0.000000023   0.000000126  -0.000000188
C        2.054485294   0.000000079   1.396342928
O        1.661579214  -0.684618422   2.557537109
O        1.654778876   3.757400962   0.235149694
O       -0.712547105  -0.339642074   1.161193949
O        1.817999604   1.363903089   1.631490573
End final coordinates



     init_run     :     15.76s CPU     15.94s WALL (       1 calls)
     electrons    :   3002.06s CPU   3023.22s WALL (       6 calls)
     update_pot   :      5.45s CPU      5.46s WALL (       5 calls)
     forces       :     22.18s CPU     22.25s WALL (       6 calls)
     stress       :     42.49s CPU     42.54s WALL (       6 calls)

     Called by init_run:
     wfcinit      :     14.45s CPU     14.60s WALL (       1 calls)
     potinit      :      0.44s CPU      0.45s WALL (       1 calls)

     Called by electrons:
     c_bands      :   2741.41s CPU   2759.45s WALL (      64 calls)
     sum_band     :    250.42s CPU    253.49s WALL (      64 calls)
     v_of_rho     :      1.44s CPU      1.45s WALL (      65 calls)
     newd         :      0.99s CPU      0.99s WALL (      65 calls)
     PAW_pot      :      5.86s CPU      5.87s WALL (      70 calls)
     mix_rho      :      1.62s CPU      1.65s WALL (      64 calls)

     Called by c_bands:
     init_us_2    :     23.56s CPU     23.74s WALL (   53290 calls)
     cegterg      :   2705.84s CPU   2723.69s WALL (   23360 calls)

     Called by sum_band:
     sum_band:bec :      0.31s CPU      0.31s WALL (   25185 calls)
     addusdens    :      0.94s CPU      0.94s WALL (      64 calls)

     Called by *egterg:
     h_psi        :   1657.82s CPU   1673.93s WALL (   78846 calls)
     s_psi        :    378.64s CPU    379.11s WALL (   78846 calls)
     g_psi        :      4.15s CPU      4.16s WALL (   55121 calls)
     cdiaghg      :     28.62s CPU     28.75s WALL (   74831 calls)

     Called by h_psi:
     h_psi:pot    :   1652.42s CPU   1668.47s WALL (   78846 calls)
     h_psi:calbec :    104.25s CPU    105.51s WALL (   78846 calls)
     vloc_psi     :   1134.92s CPU   1148.60s WALL (   78846 calls)
     add_vuspsi   :    412.99s CPU    414.16s WALL (   78846 calls)

     General routines
     calbec       :    159.50s CPU    161.35s WALL (  114981 calls)
     fft          :      0.71s CPU      0.72s WALL (    1009 calls)
     ffts         :      0.89s CPU      0.90s WALL (    1309 calls)
     fftw         :   1265.50s CPU   1280.87s WALL ( 2496778 calls)

     Parallel routines
     fft_scatter  :     86.94s CPU     88.12s WALL ( 2499096 calls)

     PWSCF        : 51m32.31s CPU    51m53.84s WALL


   This run was terminated on:  12:59:20  20Aug2020            

=------------------------------------------------------------------------------=
   JOB DONE.
=------------------------------------------------------------------------------=
